<?xml version="1.0"?>
<VTKFile type="UnstructuredGrid"  version="0.1"  >
<UnstructuredGrid>
<Piece  NumberOfPoints="12853" NumberOfCells="23493">
<Points>
<DataArray  type="Float64"  NumberOfComponents="3"  format="ascii">-3.187178156719634e-14 1.7 0  0 0 0  1.3 3 0  -3.185690647650846e-14 4.300000000000001 0  -3.187178156719634e-14 4.699999999999999 0  1.3 6 0  -3.185690647650846e-14 7.300000000000001 0  -3.187178156719634e-14 7.699999999999999 0  1.3 9 0  -3.185690647650846e-14 10.3 0  -3.187178156719634e-14 10.7 0  1.3 12 0  -3.185690647650846e-14 13.3 0  -3.187178156719634e-14 13.7 0  1.3 15 0  -3.185690647650846e-14 16.3 0  0 18 0  18 18 0  17.99999999999997 16.3 0  17.99999999999997 13.7 0  17.99999999999997 13.3 0  17.99999999999997 10.7 0  17.99999999999997 10.3 0  17.99999999999997 7.7 0  17.99999999999997 7.3 0  17.99999999999997 4.7 0  17.99999999999997 4.3 0  17.99999999999997 1.7 0  18 0 0  4.3 3 0  7.3 3 0  10.3 3 0  4.3 6 0  7.3 6 0  10.3 6 0  13.3 3 0  16.3 3 0  13.3 6 0  16.3 6 0  4.3 9 0  4.3 12 0  7.3 9 0  10.3 9 0  7.3 12 0  10.3 12 0  4.3 15 0  7.3 15 0  10.3 15 0  13.3 9 0  13.3 12 0  16.3 9 0  16.3 12 0  13.3 15 0  16.3 15 0  0 1.578571428571429 0  0 1.457142857142856 0  0 1.335714285714285 0  0 1.214285714285712 0  0 1.092857142857142 0  0 0.9714285714285715 0  0 0.8499999999999979 0  0 0.7285714285714278 0  0 0.6071428571428577 0  0 0.485714285714284 0  0 0.3642857142857139 0  0 0.2428571428571438 0  0 0.1214285714285701 0  0.1274222824284281 1.706259855326144 0  0.2536174186209668 1.7249791354758 0  0.3773700804308007 1.755977563548128 0  0.497488462074617 1.798956607735327 0  0.6128157578737968 1.853502356347138 0  0.7222413029254824 1.919089504006691 0  0.8247112694127393 1.995086410628442 0  0.9192388155425116 2.080761184457488 0  1.004913589371558 2.17528873058726 0  1.080910495993309 2.277758697074517 0  1.146497643652861 2.387184242126203 0  1.201043392264673 2.502511537925383 0  1.244022436451871 2.622629919569199 0  1.275020864524199 2.746382581379033 0  1.293740144673856 2.872577717571571 0  1.293740144673856 3.127422282428428 0  1.2750208645242 3.253617418620966 0  1.244022436451872 3.3773700804308 0  1.201043392264673 3.497488462074616 0  1.146497643652862 3.612815757873796 0  1.08091049599331 3.722241302925481 0  1.00491358937156 3.824711269412738 0  0.9192388155425134 3.91923881554251 0  0.8247112694127412 4.004913589371556 0  0.7222413029254846 4.080910495993308 0  0.6128157578737984 4.146497643652861 0  0.4974884620746181 4.201043392264673 0  0.3773700804308024 4.244022436451871 0  0.2536174186209674 4.275020864524199 0  0.127422282428429 4.293740144673856 0  0 4.6 0  0 4.5 0  0 4.4 0  0.1274222824284281 4.706259855326143 0  0.2536174186209668 4.724979135475801 0  0.3773700804308007 4.755977563548129 0  0.497488462074617 4.798956607735327 0  0.6128157578737968 4.853502356347138 0  0.7222413029254824 4.919089504006691 0  0.8247112694127393 4.995086410628442 0  0.9192388155425116 5.080761184457488 0  1.004913589371558 5.17528873058726 0  1.080910495993309 5.277758697074518 0  1.146497643652861 5.387184242126203 0  1.201043392264673 5.502511537925383 0  1.244022436451871 5.622629919569198 0  1.275020864524199 5.746382581379033 0  1.293740144673856 5.872577717571572 0  1.293740144673856 6.127422282428428 0  1.2750208645242 6.253617418620967 0  1.244022436451872 6.377370080430801 0  1.201043392264673 6.497488462074616 0  1.146497643652862 6.612815757873795 0  1.08091049599331 6.722241302925481 0  1.00491358937156 6.824711269412737 0  0.9192388155425134 6.91923881554251 0  0.8247112694127412 7.004913589371556 0  0.7222413029254846 7.080910495993308 0  0.6128157578737984 7.146497643652861 0  0.4974884620746181 7.201043392264673 0  0.3773700804308024 7.244022436451871 0  0.2536174186209674 7.275020864524199 0  0.127422282428429 7.293740144673856 0  0 7.6 0  0 7.5 0  0 7.4 0  0.1274222824284281 7.706259855326143 0  0.2536174186209668 7.724979135475801 0  0.3773700804308007 7.755977563548129 0  0.497488462074617 7.798956607735327 0  0.6128157578737968 7.853502356347138 0  0.7222413029254824 7.919089504006691 0  0.8247112694127393 7.995086410628442 0  0.9192388155425116 8.080761184457488 0  1.004913589371558 8.17528873058726 0  1.080910495993309 8.277758697074518 0  1.146497643652861 8.387184242126203 0  1.201043392264673 8.502511537925383 0  1.244022436451871 8.622629919569199 0  1.275020864524199 8.746382581379033 0  1.293740144673856 8.872577717571572 0  1.293740144673856 9.127422282428428 0  1.2750208645242 9.253617418620966 0  1.244022436451872 9.377370080430801 0  1.201043392264673 9.497488462074616 0  1.146497643652862 9.612815757873795 0  1.08091049599331 9.722241302925481 0  1.00491358937156 9.824711269412738 0  0.9192388155425134 9.91923881554251 0  0.8247112694127412 10.00491358937156 0  0.7222413029254846 10.08091049599331 0  0.6128157578737984 10.14649764365286 0  0.4974884620746181 10.20104339226467 0  0.3773700804308024 10.24402243645187 0  0.2536174186209674 10.2750208645242 0  0.127422282428429 10.29374014467386 0  0 10.6 0  0 10.5 0  0 10.4 0  0.1274222824284281 10.70625985532614 0  0.2536174186209668 10.7249791354758 0  0.3773700804308007 10.75597756354813 0  0.497488462074617 10.79895660773533 0  0.6128157578737968 10.85350235634714 0  0.7222413029254824 10.91908950400669 0  0.8247112694127393 10.99508641062844 0  0.9192388155425116 11.08076118445749 0  1.004913589371558 11.17528873058726 0  1.080910495993309 11.27775869707452 0  1.146497643652861 11.3871842421262 0  1.201043392264673 11.50251153792538 0  1.244022436451871 11.6226299195692 0  1.275020864524199 11.74638258137903 0  1.293740144673856 11.87257771757157 0  1.293740144673856 12.12742228242843 0  1.2750208645242 12.25361741862097 0  1.244022436451872 12.3773700804308 0  1.201043392264673 12.49748846207462 0  1.146497643652862 12.6128157578738 0  1.08091049599331 12.72224130292548 0  1.00491358937156 12.82471126941274 0  0.9192388155425134 12.91923881554251 0  0.8247112694127412 13.00491358937156 0  0.7222413029254846 13.08091049599331 0  0.6128157578737984 13.14649764365286 0  0.4974884620746181 13.20104339226467 0  0.3773700804308024 13.24402243645187 0  0.2536174186209674 13.2750208645242 0  0.127422282428429 13.29374014467386 0  0 13.6 0  0 13.5 0  0 13.4 0  0.1274222824284281 13.70625985532614 0  0.2536174186209668 13.7249791354758 0  0.3773700804308007 13.75597756354813 0  0.497488462074617 13.79895660773533 0  0.6128157578737968 13.85350235634714 0  0.7222413029254824 13.91908950400669 0  0.8247112694127393 13.99508641062844 0  0.9192388155425116 14.08076118445749 0  1.004913589371558 14.17528873058726 0  1.080910495993309 14.27775869707452 0  1.146497643652861 14.3871842421262 0  1.201043392264673 14.50251153792538 0  1.244022436451871 14.6226299195692 0  1.275020864524199 14.74638258137903 0  1.293740144673856 14.87257771757157 0  1.293740144673856 15.12742228242843 0  1.2750208645242 15.25361741862097 0  1.244022436451872 15.3773700804308 0  1.201043392264673 15.49748846207462 0  1.146497643652862 15.6128157578738 0  1.08091049599331 15.72224130292548 0  1.00491358937156 15.82471126941274 0  0.9192388155425134 15.91923881554251 0  0.8247112694127412 16.00491358937156 0  0.7222413029254846 16.08091049599331 0  0.6128157578737984 16.14649764365286 0  0.4974884620746181 16.20104339226467 0  0.3773700804308024 16.24402243645187 0  0.2536174186209674 16.2750208645242 0  0.127422282428429 16.29374014467385 0  0 17.87857142857143 0  0 17.75714285714286 0  0 17.63571428571429 0  0 17.51428571428571 0  0 17.39285714285714 0  0 17.27142857142857 0  0 17.15 0  0 17.02857142857143 0  0 16.90714285714286 0  0 16.78571428571428 0  0 16.66428571428571 0  0 16.54285714285714 0  0 16.42142857142857 0  17.8705035971223 18 0  17.7410071942446 18 0  17.61151079136691 18 0  17.48201438848921 18 0  17.35251798561151 18 0  17.22302158273381 18 0  17.09352517985612 18 0  16.96402877697842 18 0  16.83453237410072 18 0  16.70503597122302 18 0  16.57553956834532 18 0  16.44604316546762 18 0  16.31654676258993 18 0  16.18705035971223 18 0  16.05755395683453 18 0  15.92805755395683 18 0  15.79856115107913 18 0  15.66906474820144 18 0  15.53956834532374 18 0  15.41007194244604 18 0  15.28057553956834 18 0  15.15107913669064 18 0  15.02158273381295 18 0  14.89208633093525 18 0  14.76258992805755 18 0  14.63309352517985 18 0  14.50359712230215 18 0  14.37410071942446 18 0  14.24460431654676 18 0  14.11510791366906 18 0  13.98561151079136 18 0  13.85611510791366 18 0  13.72661870503597 18 0  13.59712230215827 18 0  13.46762589928057 18 0  13.33812949640287 18 0  13.20863309352517 18 0  13.07913669064748 18 0  12.94964028776977 18 0  12.82014388489208 18 0  12.69064748201438 18 0  12.56115107913668 18 0  12.43165467625898 18 0  12.30215827338128 18 0  12.17266187050359 18 0  12.04316546762589 18 0  11.91366906474819 18 0  11.78417266187049 18 0  11.65467625899279 18 0  11.52517985611509 18 0  11.3956834532374 18 0  11.2661870503597 18 0  11.136690647482 18 0  11.0071942446043 18 0  10.8776978417266 18 0  10.7482014388489 18 0  10.6187050359712 18 0  10.48920863309351 18 0  10.35971223021581 18 0  10.23021582733811 18 0  10.10071942446041 18 0  9.971223021582714 18 0  9.841726618705016 18 0  9.712230215827317 18 0  9.582733812949618 18 0  9.453237410071921 18 0  9.323741007194224 18 0  9.194244604316525 18 0  9.064748201438828 18 0  8.935251798561131 18 0  8.805755395683434 18 0  8.676258992805735 18 0  8.546762589928038 18 0  8.417266187050341 18 0  8.287769784172642 18 0  8.158273381294947 18 0  8.028776978417248 18 0  7.899280575539549 18 0  7.769784172661854 18 0  7.640287769784155 18 0  7.510791366906458 18 0  7.381294964028761 18 0  7.251798561151062 18 0  7.122302158273365 18 0  6.992805755395668 18 0  6.86330935251797 18 0  6.733812949640273 18 0  6.604316546762576 18 0  6.474820143884878 18 0  6.34532374100718 18 0  6.215827338129483 18 0  6.086330935251786 18 0  5.956834532374087 18 0  5.827338129496392 18 0  5.697
[...]
<PointData  Vectors="f_21"> 
<DataArray  type="Float64"  Name="f_21"  NumberOfComponents="3" format="ascii">-2.5827662722740161e-03 -1.9300269926199674e-03 0.0000000000000000e+00  0.0000000000000000e+00 0.0000000000000000e+00 0.0000000000000000e+00  -4.5629889870291958e-03 -1.6966485107945298e-02 0.0000000000000000e+00  -6.5304611288020927e-03 -2.9637420981470129e-02 0.0000000000000000e+00  -6.5052233980902423e-03 -2.9637097276685970e-02 0.0000000000000000e+00  -3.9704528844956045e-03 -4.2205858260209644e-02 0.0000000000000000e+00  5.0055855513362864e-04 -5.0763407394254667e-02 0.0000000000000000e+00  1.9480790194191877e-03 -5.0765575293384289e-02 0.0000000000000000e+00  9.3205607308773676e-03 -6.8428184312299467e-02 0.0000000000000000e+00  1.5851100200745608e-02 -7.6766502815581186e-02 0.0000000000000000e+00  1.7638372386494919e-02 -7.6770023038534058e-02 0.0000000000000000e+00  2.7324931226223433e-02 -9.5627185039137474e-02 0.0000000000000000e+00  3.9226502804860654e-02 -9.9452627684299452e-02 0.0000000000000000e+00  4.2597238587509745e-02 -9.9466489271762742e-02 0.0000000000000000e+00  5.9120007697832481e-02 -1.2471866653022519e-01 0.0000000000000000e+00  6.7667631394660685e-02 -1.4747578366451716e-01 0.0000000000000000e+00  6.3987790493506114e-02 -1.5141061440338882e-01 0.0000000000000000e+00  1.2754412255189937e-01 -3.2645281551649025e-01 0.0000000000000000e+00  6.9974444866899743e-02 -3.2134169547209041e-01 0.0000000000000000e+00  5.7850904976943583e-02 -2.1105137305985092e-01 0.0000000000000000e+00  5.7484390173011372e-02 -2.1105145452547588e-01 0.0000000000000000e+00  4.5986808039745516e-02 -1.7350039035742199e-01 0.0000000000000000e+00  4.1662557379645852e-02 -1.7347805142205158e-01 0.0000000000000000e+00  2.9092384008835029e-02 -1.1149517554666651e-01 0.0000000000000000e+00  2.7702397116258007e-02 -1.1149359586957032e-01 0.0000000000000000e+00  1.8739927267817404e-02 -6.4220216262783528e-02 0.0000000000000000e+00  1.6633945673753280e-02 -6.4215444182550485e-02 0.0000000000000000e+00  4.4093673497673366e-03 -3.4638852753247160e-03 0.0000000000000000e+00  0.0000000000000000e+00 0.0000000000000000e+00 0.0000000000000000e+00  -2.6164879402830448e-03 -1.7203905404405698e-02 0.0000000000000000e+00  -1.1046620332622232e-03 -1.7381683413184624e-02 0.0000000000000000e+00  -7.1015426766748622e-04 -1.9377992206939434e-02 0.0000000000000000e+00  1.1785476315732167e-03 -4.3887205813058425e-02 0.0000000000000000e+00  3.6940592808184314e-03 -4.5283831985422664e-02 0.0000000000000000e+00  7.5143346493321611e-03 -5.1205185730094069e-02 0.0000000000000000e+00  9.6142438179140134e-04 -2.3425758711354844e-02 0.0000000000000000e+00  3.3760439371119280e-03 -3.0291026965402895e-02 0.0000000000000000e+00  9.3841965531344454e-03 -6.3452847276996155e-02 0.0000000000000000e+00  1.8315214293781187e-02 -8.0791776493984710e-02 0.0000000000000000e+00  1.2480148424424131e-02 -7.1188788205993045e-02 0.0000000000000000e+00  3.3174315398785265e-02 -9.8379692381262998e-02 0.0000000000000000e+00  1.6980135519584803e-02 -7.3086059544962306e-02 0.0000000000000000e+00  1.8469043281701319e-02 -8.2957022294897612e-02 0.0000000000000000e+00  3.4110760442782655e-02 -1.0030200396352996e-01 0.0000000000000000e+00  3.8201779941728832e-02 -1.1391373262311659e-01 0.0000000000000000e+00  6.0692399822610092e-02 -1.2553267699534471e-01 0.0000000000000000e+00  6.3622505237119209e-02 -1.2593016874933419e-01 0.0000000000000000e+00  6.0506351107259236e-02 -1.4308407406822563e-01 0.0000000000000000e+00  2.5030290667347726e-02 -1.0241870393073496e-01 0.0000000000000000e+00  3.5527113915828218e-02 -1.4135678356138923e-01 0.0000000000000000e+00  2.5655260074428907e-02 -1.3125932399515000e-01 0.0000000000000000e+00  5.0717483164706111e-02 -1.8305879628109575e-01 0.0000000000000000e+00  6.2840141273547687e-02 -1.7643688121500739e-01 0.0000000000000000e+00  4.3302534167382868e-02 -2.3862766812842581e-01 0.0000000000000000e+00  -2.6625824862131992e-03 -1.9344847720461076e-03 0.0000000000000000e+00  -2.7210019698537986e-03 -1.9509474162638753e-03 0.0000000000000000e+00  -2.7344100630062500e-03 -1.9643850931309794e-03 0.0000000000000000e+00  -2.6981529944659598e-03 -1.9626762827156270e-03 0.0000000000000000e+00  -2.6148433260114925e-03 -1.9375647469486190e-03 0.0000000000000000e+00  -2.4891605049160233e-03 -1.8854025540936095e-03 0.0000000000000000e+00  -2.3252218264948783e-03 -1.8050060731601416e-03 0.0000000000000000e+00  -2.1261161332819857e-03 -1.6955402014135659e-03 0.0000000000000000e+00  -1.8933464057070959e-03 -1.5559855592173796e-03 0.0000000000000000e+00  -1.6267690994219222e-03 -1.3838809081906617e-03 0.0000000000000000e+00  -1.3242260693231262e-03 -1.1741909715392042e-03 0.0000000000000000e+00  -9.8040400053582295e-04 -9.1590287745358149e-04 0.0000000000000000e+00  -5.7360939461745947e-04 -5.8274310851918316e-04 0.0000000000000000e+00  -2.5728046629041987e-03 -2.0109849695169246e-03 0.0000000000000000e+00  -2.5364471948688423e-03 -2.1224010165356729e-03 0.0000000000000000e+00  -2.4839138287480241e-03 -2.3081079054070386e-03 0.0000000000000000e+00  -2.4353299371486915e-03 -2.5942408609556096e-03 0.0000000000000000e+00  -2.4012895511720759e-03 -2.9932088816169823e-03 0.0000000000000000e+00  -2.3948444669461607e-03 -3.5138912714369132e-03 0.0000000000000000e+00  -2.4256316105557675e-03 -4.1609705958022478e-03 0.0000000000000000e+00  -2.4993270155883609e-03 -4.9397891674754484e-03 0.0000000000000000e+00  -2.6212630332001254e-03 -5.8566318659493809e-03 0.0000000000000000e+00  -2.7916122663520998e-03 -6.9215604623407033e-03 0.0000000000000000e+00  -3.0084832725685556e-03 -8.1494253161070399e-03 0.0000000000000000e+00  -3.2666188015100304e-03 -9.5567290198246089e-03 0.0000000000000000e+00  -3.5594734492607246e-03 -1.1161409029596205e-02 0.0000000000000000e+00  -3.8814354732059370e-03 -1.2962577098415282e-02 0.0000000000000000e+00  -4.2231387134402118e-03 -1.4919436244749671e-02 0.0000000000000000e+00  -4.8618910411051992e-03 -1.8985281089176336e-02 0.0000000000000000e+00  -5.0903984057618871e-03 -2.0884501233023912e-02 0.0000000000000000e+00  -5.2375876140633984e-03 -2.2613211563193372e-02 0.0000000000000000e+00  -5.3219452181036469e-03 -2.4153401526216457e-02 0.0000000000000000e+00  -5.3866361343101344e-03 -2.5510980484278380e-02 0.0000000000000000e+00  -5.4729119969784646e-03 -2.6689431577396353e-02 0.0000000000000000e+00  -5.6062182648893488e-03 -2.7680205580092869e-02 0.0000000000000000e+00  -5.7860986264827372e-03 -2.8468447600443821e-02 0.0000000000000000e+00  -5.9941827951672938e-03 -2.9043935615343144e-02 0.0000000000000000e+00  -6.1961210795656776e-03 -2.9412580593235305e-02 0.0000000000000000e+00  -6.3586946680858009e-03 -2.9604844391682601e-02 0.0000000000000000e+00  -6.4629481434612286e-03 -2.9673437686437276e-02 0.0000000000000000e+00  -6.5138019242848158e-03 -2.9676575521768937e-02 0.0000000000000000e+00  -6.5295465713620850e-03 -2.9661586846213735e-02 0.0000000000000000e+00  -6.5311246056796645e-03 -2.9647687918634653e-02 0.0000000000000000e+00  -6.5105075279140905e-03 -2.9637054396472653e-02 0.0000000000000000e+00  -6.5165821443820921e-03 -2.9637261373715317e-02 0.0000000000000000e+00  -6.5231210141580773e-03 -2.9637465495729029e-02 0.0000000000000000e+00  -6.5050873334401172e-03 -2.9642914810093776e-02 0.0000000000000000e+00  -6.5011656264766637e-03 -2.9644939603829336e-02 0.0000000000000000e+00  -6.4814211458473006e-03 -2.9645203515187013e-02 0.0000000000000000e+00  -6.4257489988588986e-03 -2.9664290443351855e-02 0.0000000000000000e+00  -6.3133693548229576e-03 -2.9746299687942946e-02 0.0000000000000000e+00  -6.1442918192840291e-03 -2.9953119539609600e-02 0.0000000000000000e+00  -5.9327780078014805e-03 -3.0332909234968806e-02 0.0000000000000000e+00  -5.7142530023705628e-03 -3.0918055207292624e-02 0.0000000000000000e+00  -5.5206284690916688e-03 -3.1712464447476427e-02 0.0000000000000000e+00  -5.3709251877739408e-03 -3.2704521535277843e-02 0.0000000000000000e+00  -5.2620216684782905e-03 -3.3878414598435019e-02 0.0000000000000000e+00  -5.1634887827847527e-03 -3.5220987209795419e-02 0.0000000000000000e+00  -5.0281878047036665e-03 -3.6736343944028367e-02 0.0000000000000000e+00  -4.8013087380558454e-03 -3.8421664367155349e-02 0.0000000000000000e+00  -4.4492832853528621e-03 -4.0264754819238906e-02 0.0000000000000000e+00  -3.3933371392665698e-03 -4.4153421422064826e-02 0.0000000000000000e+00  -2.7643558549602029e-03 -4.6000162013127066e-02 0.0000000000000000e+00  -2.1273935145322775e-03 -4.7677454811905814e-02 0.0000000000000000e+00  -1.5262995105101802e-03 -4.9144847576009260e-02 0.0000000000000000e+00  -1.0017286818566871e-03 -5.0398145963201253e-02 0.0000000000000000e+00  -5.8641367041643530e-04 -5.1429120280393648e-02 0.0000000000000000e+00  -2.9251350881993372e-04 -5.2223649728509021e-02 0.0000000000000000e+00  -1.0690390807608560e-04 -5.2766246348867819e-02 0.0000000000000000e+00  -1.5538246259567296e-06 -5.3048622082647837e-02 0.0000000000000000e+00  6.5400167333098648e-05 -5.3080867400414559e-02 0.0000000000000000e+00  1.3151718864537170e-04 -5.2899819024346664e-02 0.0000000000000000e+00  2.1730180176437970e-04 -5.2565639961714025e-02 0.0000000000000000e+00  3.1716712271119654e-04 -5.2144043665781258e-02 0.0000000000000000e+00  4.1129362163787813e-04 -5.1689448199023831e-02 0.0000000000000000e+00  4.7680780505147654e-04 -5.1226784004884632e-02 0.0000000000000000e+00  1.5872234937523628e-03 -5.0764887833343125e-02 0.0000000000000000e+00  1.2255565742143053e-03 -5.0764498185823778e-02 0.0000000000000000e+00  8.6346813142855710e-04 -5.0764103958722551e-02 0.0000000000000000e+00  1.9696612571728543e-03 -5.1224434318768552e-02 0.0000000000000000e+00  2.0396457206860561e-03 -5.1675147124463909e-02 0.0000000000000000e+00  2.1700055409270740e-03 -5.2115987970857335e-02 0.0000000000000000e+00  2.3801482907107262e-03 -5.2564892353510577e-02 0.0000000000000000e+00  2.6889941039533638e-03 -5.3063967980203165e-02 0.0000000000000000e+00  3.0928289250924139e-03 -5.3672405245782276e-02 0.0000000000000000e+00  3.5734039584303197e-03 -5.4433674432242111e-02 0.0000000000000000e+00  4.0924334486217876e-03 -5.5374032615946533e-02 0.0000000000000000e+00  4.6178259968602618e-03 -5.6491661396767090e-02 0.0000000000000000e+00  5.1325799348252146e-03 -5.7771544507319993e-02 0.0000000000000000e+00  5.6426988553844089e-03 -5.9197600109428337e-02 0.0000000000000000e+00  6.1794550722150442e-03 -6.0760682581006906e-02 0.0000000000000000e+00  6.7874029699582202e-03 -6.2469810010115583e-02 0.0000000000000000e+00  7.5102317425357239e-03 -6.4329545150607043e-02 0.0000000000000000e+00  8.3636044423561762e-03 -6.6333980431376199e-02 0.0000000000000000e+00  1.0322785730267582e-02 -7.0519999253732091e-02 0.0000000000000000e+00  1.1304743731800100e-02 -7.2489741262704119e-02 0.0000000000000000e+00  1.2223088550340723e-02 -7.4269930993957720e-02 0.0000000000000000e+00  1.3045372651113985e-02 -7.5816384362116032e-02 0.0000000000000000e+00  1.3739887060484342e-02 -7.7118712509848419e-02 0.0000000000000000e+00  1.4286654160334634e-02 -7.8175116171045209e-02 0.0000000000000000e+00  1.4682759097497854e-02 -7.8969527736331355e-02 0.0000000000000000e+00  1.4947855031760146e-02 -7.9487047077011153e-02 0.0000000000000000e+00  1.5119586823727478e-02 -7.9721102535435531e-02 0.0000000000000000e+00  1.5242633641488928e-02 -7.9685342860934760e-02 0.0000000000000000e+00  1.5356663394327020e-02 -7.9419743916988902e-02 0.0000000000000000e+00  1.5485100103107198e-02 -7.8991193504117291e-02 0.0000000000000000e+00  1.5619620872635985e-02 -7.8468402574070381e-02 0.0000000000000000e+00  1.5739814648471930e-02 -7.7908183000084619e-02 0.0000000000000000e+00  1.5821589870910348e-02 -7.7338164852571167e-02 0.0000000000000000e+00  1.7192613803444241e-02 -7.6768993439176883e-02 0.0000000000000000e+00  1.6746016167792734e-02 -7.6768272527380943e-02 0.0000000000000000e+00  1.6298979255895390e-02 -7.6767544285986117e-02 0.0000000000000000e+00  1.7664830014957354e-02 -7.7337056922557185e-02 0.0000000000000000e+00  1.7750401385780316e-02 -7.7894833671281208e-02 0.0000000000000000e+00  1.7907267872553239e-02 -7.8440653036666586e-02 0.0000000000000000e+00  1.8155319137147470e-02 -7.8992219862483587e-02 0.0000000000000000e+00  1.8513885730372173e-02 -7.9591810826812701e-02 0.0000000000000000e+00  1.8979150791576010e-02 -8.0299334186354945e-02 0.0000000000000000e+00  1.9531521103430250e-02 -8.1158224764629430e-02 0.0000000000000000e+00  2.0132739015585280e-02 -8.2191752876226737e-02 0.0000000000000000e+00  2.0754222285214625e-02 -8.3395114906888931e-02 0.0000000000000000e+00  2.1383757094045178e-02 -8.4751733478037258e-02 0.0000000000000000e+00  2.2036630042081496e-02 -8.6242542547125267e-02 0.0000000000000000e+00  2.2755509831152043e-02 -8.7860116665889929e-02 0.0000000000000000e+00  2.3602151868915736e-02 -8.9609050398339246e-02 0.0000000000000000e+00  2.4635971947494929e-02 -9.1498038061240461e-02 0.0000000000000000e+00  2.5886297687480894e-02 -9.3521138035591103e-02 0.0000000000000000e+00  2.8871479207960970e-02 -9.7723116962289636e-02 0.0000000000000000e+00  3.0424380805397781e-02 -9.9681250216789599e-02 0.0000000000000000e+00  3.1907686332326053e-02 -1.0142401916680904e-01 0.0000000000000000e+00  3.3265418904178737e-02 -1.0289644928610157e-01 0.0000000000000000e+00  3.4452166246064474e-02 -1.0407937108857643e-01 0.0000000000000000e+00  3.5443049661666705e-02 -1.0496471274405274e-01 0.0000000000000000e+00  3.6236126725736215e-02 -1.0553078265958320e-01 0.0000000000000000e+00  3.6855879591681510e-02 -1.0576143272831237e-01 0.0000000000000000e+00  3.7345305429890667e-02 -1.0565318593693554e-01 0.0000000000000000e+00  3.7752245632692326e-02 -1.0522707363585115e-01 0.0000000000000000e+00  3.8116302899333931e-02 -1.0453293300496432e-01 0.0000000000000000e+00  3.8457777897656246e-02 -1.0364781383239424e-01 0.0000000000000000e+00  3.8763708591971598e-02 -1.0264857892514387e-01 0.0000000000000000e+00  3.9009644094849992e-02 -1.0159813016831926e-01 0.0000000000000000e+00  3.9168907312650811e-02 -1.0052866238723018e-01 0.0000000000000000e+00  4.1755711916515580e-02 -9.9462900248617037e-02 0.0000000000000000e+00  4.0913297283053311e-02 -9.9459574437879575e-02 0.0000000000000000e+00  4.0070344808443757e-02 -9.9456238654852966e-02 0.0000000000000000e+00  4.2645193805063264e-02 -1.0053799079228500e-01 0.0000000000000000e+00  4.2801537810470323e-02 -1.0159547514258818e-01 0.0000000000000000e+00  4.3078102754097847e-02 -1.0263102606673244e-01 0.0000000000000000e+00  4.3494611505640768e-02 -1.0365751197693640e-01 0.0000000000000000e+00  4.4070349779055246e-02 -1.0471324793389769e-01 0.0000000000000000e+00  4.4801664775471393e-02 -1.0585476455165116e-01 0.0000000000000000e+00  4.5669721816978995e-02 -1.0712191152118788e-01 0.0000000000000000e+00  4.6639201521764040e-02 -1.0853423009985312e-01 0.0000000000000000e+00  4.7687881660602498e-02 -1.1008418175252944e-01 0.0000000000000000e+00  4.8813689616972071e-02 -1.1175558311076636e-01 0.0000000000000000e+00  5.0044051761077450e-02 -1.1353558428195813e-01 0.0000000000000000e+00  5.1432065768904606e-02 -1.1542920673205292e-01 0.0000000000000000e+00  5.3039012220659883e-02 -1.1746378895182236e-01 0.0000000000000000e+00  5.4898059266989034e-02 -1.1968115142193259e-01 0.0000000000000000e+00  5.6973375219106920e-02 -1.2210859193802506e-01 0.0000000000000000e+00  6.1134990848563026e-02 -1.2741906971755815e-01 0.0000000000000000e+00  6.2847642525964351e-02 -1.3004564606257077e-01 0.0000000000000000e+00  6.4203202009248617e-02 -1.3249267728929368e-01 0.0000000000000000e+00  6.5234273174775301e-02 -1.3467817974316384e-01 0.0000000000000000e+00  6.6014222615552162e-02 -1.3659413507030932e-01 0.0000000000000000e+00  6.6608137734805048e-02 -1.3827346972506366e-01 0.0000000000000000e+00  6.7061982967324407e-02 -1.3975390973343030e-01 0.0000000000000000e+00  6.7403896503122798e-02 -1.4107357706828766e-01 0.0000000000000000e+00  6.7649003252602910e-02 -1.4226180711499933e-01 0.0000000000000000e+00  6.7808153147286609e-02 -1.4333628168195078e-01 0.0000000000000000e+00  6.7888407889381039e-02 -1.4430585327440057e-01 0.0000000000000000e+00  6.7898398188184578e-02 -1.4516793291309069e-01 0.0000000000000000e+00  6.7853870117420140e-02 -1.4591547351470852e-01 0.0000000000000000e+00  6.7773358284807655e-02 -1.4653973299630504e-01 0.0000000000000000e+00  6.7697299953855053e-02 -1.4704472380091427e-01 0.0000000000000000e+00  6.4402070444232490e-02 -1.5091969030236577e-01 0.0000000000000000e+00  6.4788352743029048e-02 -1.5041829521684291e-01 0.0000000000000000e+00  6.5126252116682923e-02 -1.4991921011599257e-01 0.0000000000000000e+00  6.5409740686960996e-02 -1.4943842910093702e-01 0.0000000000000000e+00  6.5641758775960624e-02 -1.4899075881276316e-01 0.0000000000000000e+00  6.5830941275443658e-02 -1.4858764520670717e-01 0.0000000000000000e+00  6.5989554416519214e-02 -1.4823833272428330e-01 0.0000000000000000e+00  6.6132534571212917e-02 -1.4795011163650687e-01 0.0000000000000000e+00  6.6277142790442459e-02 -1.4772822738294195e-01 0.0000000000000000e+00  6.6442464430255255e-02 -1.4757507256861893e-01 0.0000000000000000e+00  6.6649965184973625e-02 -1.4748957658049175e-01 0.0000000000000000e+00  6.6920544938546600e-02 -1.4746100165213127e-01 0.0000000000000000e+00  6.7266755001331585e-02 -1.4746911075794086e-01 0.0000000000000000e+00  1.2737323301201386e-01 -3.2223429571539641e-01 0.0000000000000000e+00  1.2718701196212054e-01 -3.1804218576558257e-01 0.0000000000000000e+00  1.2698526126314341e-01 -3.1381972347091913e-01 0.0000000000000000e+00  1.2675630389576106e-01 -3.0954171575175560e-01 0.0000000000000000e+00  1.2648526766402526e-01 -3.0519859184658438e-01 0.0000000000000000e+00  1.2616187293727973e-01 -3.0079166568257953e-01 0.0000000000000000e+00  1.2577992504177313e-01 -2.9632785395147487e-01 0.0000000000000000e+00  1.2533594912387319e-01 -2.9181815010142154e-01 0.0000000000000000e+00  1.2483104873056376e-01 -2.8727546577530899e-01 0.0000000000000000e+00  1.2426856045306713e-01 -2.8271312975733526e-01 0.0000000000000000e+00  1.2365387210952998e-01 -2.7814390113945409e-01 0.0000000000000000e+00  1.2299322367092401e-01 -2.7358001568008083e-01 0.0000000000000000e+00  1.2229328412881650e-01 -2.6903277036223538e-01 0.0000000000000000e+00  1.2156015035149914e-01 -2.6451258890895302e-01 0.0000000000000000e+00  1.2079872046090562e-01 -2.6002950075644177e-01 0.0000000000000000e+00  1.2001228957022075e-01 -2.5559389414948541e-01 0.0000000000000000e+00  1.1920276814071784e-01 -2.5121667199464531e-01 0.0000000000000000e+00  1.1836975502715991e-01 -2.4691126310954875e-01 0.0000000000000000e+00  1.1751165003502251e-01 -2.4269309844186995e-01 0.0000000000000000e+00  1.1662542891999704e-01 -2.3858163874980085e-01 0.0000000000000000e+00  1.1570718811736355e-01 -2.3460214521486897e-01 0.0000000000000000e+00  1.1475247173659175e-01 -2.3078956357099004e-01 0.0000000000000000e+00  1.1375683396613759e-01 -2.2720330462237448e-01 0.0000000000000000e+00  1.1274248785316232e-01 -2.2395992714268095e-01 0.0000000000000000e+00  1.1174780094604984e-01 -2.2098910239457187e-01 0.0000000000000000e+00  1.1077307607061584e-01 -2.1821286188139491e-01 0.0000000000000000e+00  1.0981516449724289e-01 -2.1559939875192582e-01 0.0000000000000000e+00  1.0887320086192682e-01 -2.1312651042925718e-01 0.0000000000000000e+00  1.0794663723131458e-01 -2.1077774364241178e-01 0.0000000000000000e+00  1.0703650682766670e-01 -2.0853990279085169e-01 0.0000000000000000e+00  1.0614441834003367e-01 -2.0640139342651162e-01 0.0000000000000000e+00  1.0527293732136339e-01 -2.0435159248189996e-01 0.0000000000000000e+00  1.0442517572250190e-01 -2.0238022936094588e-01 0.0000000000000000e+00  1.0360436176226639e-01 -2.0047743875512403e-01 0.0000000000000000e+00  1.0281401295054192e-01 -1.9863300542823964e-01 0.0000000000000000e+00  1.0205706239169415e-01 -1.9683687788071039e-01 0.0000000000000000e+00  1.0133603461441955e-01 -1.9507926135311257e-01 0.0000000000000000e+00  1.00652