<?xml version="1.0"?>
<VTKFile type="UnstructuredGrid"  version="0.1"  >
<UnstructuredGrid>
<Piece  NumberOfPoints="12853" NumberOfCells="23493">
<Points>
<DataArray  type="Float64"  NumberOfComponents="3"  format="ascii">-3.187178156719634e-14 1.7 0  0 0 0  1.3 3 0  -3.185690647650846e-14 4.300000000000001 0  -3.187178156719634e-14 4.699999999999999 0  1.3 6 0  -3.185690647650846e-14 7.300000000000001 0  -3.187178156719634e-14 7.699999999999999 0  1.3 9 0  -3.185690647650846e-14 10.3 0  -3.187178156719634e-14 10.7 0  1.3 12 0  -3.185690647650846e-14 13.3 0  -3.187178156719634e-14 13.7 0  1.3 15 0  -3.185690647650846e-14 16.3 0  0 18 0  18 18 0  17.99999999999997 16.3 0  17.99999999999997 13.7 0  17.99999999999997 13.3 0  17.99999999999997 10.7 0  17.99999999999997 10.3 0  17.99999999999997 7.7 0  17.99999999999997 7.3 0  17.99999999999997 4.7 0  17.99999999999997 4.3 0  17.99999999999997 1.7 0  18 0 0  4.3 3 0  7.3 3 0  10.3 3 0  4.3 6 0  7.3 6 0  10.3 6 0  13.3 3 0  16.3 3 0  13.3 6 0  16.3 6 0  4.3 9 0  4.3 12 0  7.3 9 0  10.3 9 0  7.3 12 0  10.3 12 0  4.3 15 0  7.3 15 0  10.3 15 0  13.3 9 0  13.3 12 0  16.3 9 0  16.3 12 0  13.3 15 0  16.3 15 0  0 1.578571428571429 0  0 1.457142857142856 0  0 1.335714285714285 0  0 1.214285714285712 0  0 1.092857142857142 0  0 0.9714285714285715 0  0 0.8499999999999979 0  0 0.7285714285714278 0  0 0.6071428571428577 0  0 0.485714285714284 0  0 0.3642857142857139 0  0 0.2428571428571438 0  0 0.1214285714285701 0  0.1274222824284281 1.706259855326144 0  0.2536174186209668 1.7249791354758 0  0.3773700804308007 1.755977563548128 0  0.497488462074617 1.798956607735327 0  0.6128157578737968 1.853502356347138 0  0.7222413029254824 1.919089504006691 0  0.8247112694127393 1.995086410628442 0  0.9192388155425116 2.080761184457488 0  1.004913589371558 2.17528873058726 0  1.080910495993309 2.277758697074517 0  1.146497643652861 2.387184242126203 0  1.201043392264673 2.502511537925383 0  1.244022436451871 2.622629919569199 0  1.275020864524199 2.746382581379033 0  1.293740144673856 2.872577717571571 0  1.293740144673856 3.127422282428428 0  1.2750208645242 3.253617418620966 0  1.244022436451872 3.3773700804308 0  1.201043392264673 3.497488462074616 0  1.146497643652862 3.612815757873796 0  1.08091049599331 3.722241302925481 0  1.00491358937156 3.824711269412738 0  0.9192388155425134 3.91923881554251 0  0.8247112694127412 4.004913589371556 0  0.7222413029254846 4.080910495993308 0  0.6128157578737984 4.146497643652861 0  0.4974884620746181 4.201043392264673 0  0.3773700804308024 4.244022436451871 0  0.2536174186209674 4.275020864524199 0  0.127422282428429 4.293740144673856 0  0 4.6 0  0 4.5 0  0 4.4 0  0.1274222824284281 4.706259855326143 0  0.2536174186209668 4.724979135475801 0  0.3773700804308007 4.755977563548129 0  0.497488462074617 4.798956607735327 0  0.6128157578737968 4.853502356347138 0  0.7222413029254824 4.919089504006691 0  0.8247112694127393 4.995086410628442 0  0.9192388155425116 5.080761184457488 0  1.004913589371558 5.17528873058726 0  1.080910495993309 5.277758697074518 0  1.146497643652861 5.387184242126203 0  1.201043392264673 5.502511537925383 0  1.244022436451871 5.622629919569198 0  1.275020864524199 5.746382581379033 0  1.293740144673856 5.872577717571572 0  1.293740144673856 6.127422282428428 0  1.2750208645242 6.253617418620967 0  1.244022436451872 6.377370080430801 0  1.201043392264673 6.497488462074616 0  1.146497643652862 6.612815757873795 0  1.08091049599331 6.722241302925481 0  1.00491358937156 6.824711269412737 0  0.9192388155425134 6.91923881554251 0  0.8247112694127412 7.004913589371556 0  0.7222413029254846 7.080910495993308 0  0.6128157578737984 7.146497643652861 0  0.4974884620746181 7.201043392264673 0  0.3773700804308024 7.244022436451871 0  0.2536174186209674 7.275020864524199 0  0.127422282428429 7.293740144673856 0  0 7.6 0  0 7.5 0  0 7.4 0  0.1274222824284281 7.706259855326143 0  0.2536174186209668 7.724979135475801 0  0.3773700804308007 7.755977563548129 0  0.497488462074617 7.798956607735327 0  0.6128157578737968 7.853502356347138 0  0.7222413029254824 7.919089504006691 0  0.8247112694127393 7.995086410628442 0  0.9192388155425116 8.080761184457488 0  1.004913589371558 8.17528873058726 0  1.080910495993309 8.277758697074518 0  1.146497643652861 8.387184242126203 0  1.201043392264673 8.502511537925383 0  1.244022436451871 8.622629919569199 0  1.275020864524199 8.746382581379033 0  1.293740144673856 8.872577717571572 0  1.293740144673856 9.127422282428428 0  1.2750208645242 9.253617418620966 0  1.244022436451872 9.377370080430801 0  1.201043392264673 9.497488462074616 0  1.146497643652862 9.612815757873795 0  1.08091049599331 9.722241302925481 0  1.00491358937156 9.824711269412738 0  0.9192388155425134 9.91923881554251 0  0.8247112694127412 10.00491358937156 0  0.7222413029254846 10.08091049599331 0  0.6128157578737984 10.14649764365286 0  0.4974884620746181 10.20104339226467 0  0.3773700804308024 10.24402243645187 0  0.2536174186209674 10.2750208645242 0  0.127422282428429 10.29374014467386 0  0 10.6 0  0 10.5 0  0 10.4 0  0.1274222824284281 10.70625985532614 0  0.2536174186209668 10.7249791354758 0  0.3773700804308007 10.75597756354813 0  0.497488462074617 10.79895660773533 0  0.6128157578737968 10.85350235634714 0  0.7222413029254824 10.91908950400669 0  0.8247112694127393 10.99508641062844 0  0.9192388155425116 11.08076118445749 0  1.004913589371558 11.17528873058726 0  1.080910495993309 11.27775869707452 0  1.146497643652861 11.3871842421262 0  1.201043392264673 11.50251153792538 0  1.244022436451871 11.6226299195692 0  1.275020864524199 11.74638258137903 0  1.293740144673856 11.87257771757157 0  1.293740144673856 12.12742228242843 0  1.2750208645242 12.25361741862097 0  1.244022436451872 12.3773700804308 0  1.201043392264673 12.49748846207462 0  1.146497643652862 12.6128157578738 0  1.08091049599331 12.72224130292548 0  1.00491358937156 12.82471126941274 0  0.9192388155425134 12.91923881554251 0  0.8247112694127412 13.00491358937156 0  0.7222413029254846 13.08091049599331 0  0.6128157578737984 13.14649764365286 0  0.4974884620746181 13.20104339226467 0  0.3773700804308024 13.24402243645187 0  0.2536174186209674 13.2750208645242 0  0.127422282428429 13.29374014467386 0  0 13.6 0  0 13.5 0  0 13.4 0  0.1274222824284281 13.70625985532614 0  0.2536174186209668 13.7249791354758 0  0.3773700804308007 13.75597756354813 0  0.497488462074617 13.79895660773533 0  0.6128157578737968 13.85350235634714 0  0.7222413029254824 13.91908950400669 0  0.8247112694127393 13.99508641062844 0  0.9192388155425116 14.08076118445749 0  1.004913589371558 14.17528873058726 0  1.080910495993309 14.27775869707452 0  1.146497643652861 14.3871842421262 0  1.201043392264673 14.50251153792538 0  1.244022436451871 14.6226299195692 0  1.275020864524199 14.74638258137903 0  1.293740144673856 14.87257771757157 0  1.293740144673856 15.12742228242843 0  1.2750208645242 15.25361741862097 0  1.244022436451872 15.3773700804308 0  1.201043392264673 15.49748846207462 0  1.146497643652862 15.6128157578738 0  1.08091049599331 15.72224130292548 0  1.00491358937156 15.82471126941274 0  0.9192388155425134 15.91923881554251 0  0.8247112694127412 16.00491358937156 0  0.7222413029254846 16.08091049599331 0  0.6128157578737984 16.14649764365286 0  0.4974884620746181 16.20104339226467 0  0.3773700804308024 16.24402243645187 0  0.2536174186209674 16.2750208645242 0  0.127422282428429 16.29374014467385 0  0 17.87857142857143 0  0 17.75714285714286 0  0 17.63571428571429 0  0 17.51428571428571 0  0 17.39285714285714 0  0 17.27142857142857 0  0 17.15 0  0 17.02857142857143 0  0 16.90714285714286 0  0 16.78571428571428 0  0 16.66428571428571 0  0 16.54285714285714 0  0 16.42142857142857 0  17.8705035971223 18 0  17.7410071942446 18 0  17.61151079136691 18 0  17.48201438848921 18 0  17.35251798561151 18 0  17.22302158273381 18 0  17.09352517985612 18 0  16.96402877697842 18 0  16.83453237410072 18 0  16.70503597122302 18 0  16.57553956834532 18 0  16.44604316546762 18 0  16.31654676258993 18 0  16.18705035971223 18 0  16.05755395683453 18 0  15.92805755395683 18 0  15.79856115107913 18 0  15.66906474820144 18 0  15.53956834532374 18 0  15.41007194244604 18 0  15.28057553956834 18 0  15.15107913669064 18 0  15.02158273381295 18 0  14.89208633093525 18 0  14.76258992805755 18 0  14.63309352517985 18 0  14.50359712230215 18 0  14.37410071942446 18 0  14.24460431654676 18 0  14.11510791366906 18 0  13.98561151079136 18 0  13.85611510791366 18 0  13.72661870503597 18 0  13.59712230215827 18 0  13.46762589928057 18 0  13.33812949640287 18 0  13.20863309352517 18 0  13.07913669064748 18 0  12.94964028776977 18 0  12.82014388489208 18 0  12.69064748201438 18 0  12.56115107913668 18 0  12.43165467625898 18 0  12.30215827338128 18 0  12.17266187050359 18 0  12.04316546762589 18 0  11.91366906474819 18 0  11.78417266187049 18 0  11.65467625899279 18 0  11.52517985611509 18 0  11.3956834532374 18 0  11.2661870503597 18 0  11.136690647482 18 0  11.0071942446043 18 0  10.8776978417266 18 0  10.7482014388489 18 0  10.6187050359712 18 0  10.48920863309351 18 0  10.35971223021581 18 0  10.23021582733811 18 0  10.10071942446041 18 0  9.971223021582714 18 0  9.841726618705016 18 0  9.712230215827317 18 0  9.582733812949618 18 0  9.453237410071921 18 0  9.323741007194224 18 0  9.194244604316525 18 0  9.064748201438828 18 0  8.935251798561131 18 0  8.805755395683434 18 0  8.676258992805735 18 0  8.546762589928038 18 0  8.417266187050341 18 0  8.287769784172642 18 0  8.158273381294947 18 0  8.028776978417248 18 0  7.899280575539549 18 0  7.769784172661854 18 0  7.640287769784155 18 0  7.510791366906458 18 0  7.381294964028761 18 0  7.251798561151062 18 0  7.122302158273365 18 0  6.992805755395668 18 0  6.86330935251797 18 0  6.733812949640273 18 0  6.604316546762576 18 0  6.474820143884878 18 0  6.34532374100718 18 0  6.215827338129483 18 0  6.086330935251786 18 0  5.956834532374087 18 0  5.827338129496392 18 0  5.697
[...]
<PointData  Vectors="f_21"> 
<DataArray  type="Float64"  Name="f_21"  NumberOfComponents="3" format="ascii">-2.0484552579456785e-03 -1.5314956853589637e-03 0.0000000000000000e+00  0.0000000000000000e+00 0.0000000000000000e+00 0.0000000000000000e+00  -3.6617211939901011e-03 -1.3464778313679553e-02 0.0000000000000000e+00  -5.3309399352731990e-03 -2.3608114179956230e-02 0.0000000000000000e+00  -5.3402802696429505e-03 -2.3607854720965580e-02 0.0000000000000000e+00  -3.4918880003839783e-03 -3.3503219223649801e-02 0.0000000000000000e+00  -2.6945965810527150e-04 -4.0564186488338851e-02 0.0000000000000000e+00  7.8873938377104868e-04 -4.0565224786675229e-02 0.0000000000000000e+00  6.2578994682753238e-03 -5.4279662449360742e-02 0.0000000000000000e+00  1.1095240921299663e-02 -6.1071023177473725e-02 0.0000000000000000e+00  1.2435631368617098e-02 -6.1072893047330344e-02 0.0000000000000000e+00  1.9735855195009533e-02 -7.5780017595384205e-02 0.0000000000000000e+00  2.8573213229133618e-02 -7.9238162348840499e-02 0.0000000000000000e+00  3.1087657784858128e-02 -7.9245790757143941e-02 0.0000000000000000e+00  4.3538623091207242e-02 -9.8680264514118377e-02 0.0000000000000000e+00  5.0026455332694959e-02 -1.1657569416452919e-01 0.0000000000000000e+00  4.7030275013471422e-02 -1.1966669749865325e-01 0.0000000000000000e+00  9.6700016570718597e-02 -2.5462343859613018e-01 0.0000000000000000e+00  5.2692098218880684e-02 -2.5084126783111588e-01 0.0000000000000000e+00  4.3390135635201936e-02 -1.6573363421541812e-01 0.0000000000000000e+00  4.2996024811328928e-02 -1.6573365675674873e-01 0.0000000000000000e+00  3.4613998351891530e-02 -1.3482794027376466e-01 0.0000000000000000e+00  3.1498673210371871e-02 -1.3481662262713240e-01 0.0000000000000000e+00  2.2249391431461908e-02 -8.7402604169977235e-02 0.0000000000000000e+00  2.1128741523323374e-02 -8.7401708245507775e-02 0.0000000000000000e+00  1.4394540979011465e-02 -4.9903184570281062e-02 0.0000000000000000e+00  1.2839237750077202e-02 -4.9900768407253562e-02 0.0000000000000000e+00  3.4624815970453206e-03 -2.7171900841441859e-03 0.0000000000000000e+00  0.0000000000000000e+00 0.0000000000000000e+00 0.0000000000000000e+00  -2.1168667626152004e-03 -1.3597051924863709e-02 0.0000000000000000e+00  -9.6594700508133258e-04 -1.3740036065018932e-02 0.0000000000000000e+00  -5.9929606225448556e-04 -1.5296182237547622e-02 0.0000000000000000e+00  4.6974687003349241e-04 -3.4705716927757160e-02 0.0000000000000000e+00  2.5307731490141760e-03 -3.5779650089239591e-02 0.0000000000000000e+00  5.4024611396472372e-03 -4.0426504040816137e-02 0.0000000000000000e+00  6.4540225136803121e-04 -1.8464138077561407e-02 0.0000000000000000e+00  2.7060494236635048e-03 -2.3719841690156653e-02 0.0000000000000000e+00  7.1461377992526687e-03 -4.9930408590034309e-02 0.0000000000000000e+00  1.3754281943412432e-02 -6.3268626322672411e-02 0.0000000000000000e+00  8.8454722456864938e-03 -5.6276064304924774e-02 0.0000000000000000e+00  2.4178237450680304e-02 -7.7742774051807365e-02 0.0000000000000000e+00  1.2254002983698211e-02 -5.7745401880585613e-02 0.0000000000000000e+00  1.3639671957927302e-02 -6.5484372005339672e-02 0.0000000000000000e+00  2.5069504220325431e-02 -7.9222008693069390e-02 0.0000000000000000e+00  2.8073366933749760e-02 -8.9900038956722800e-02 0.0000000000000000e+00  4.4922664883611609e-02 -9.9144872886703303e-02 0.0000000000000000e+00  4.7123929390525100e-02 -9.9410151015602924e-02 0.0000000000000000e+00  4.4826094725880623e-02 -1.1292967022603881e-01 0.0000000000000000e+00  1.8434240897271220e-02 -8.0647044963203199e-02 0.0000000000000000e+00  2.6483266598999723e-02 -1.1127503118439594e-01 0.0000000000000000e+00  1.9673177608715519e-02 -1.0281416776510902e-01 0.0000000000000000e+00  3.7467220455322130e-02 -1.4341939050329477e-01 0.0000000000000000e+00  4.6494440473348150e-02 -1.3889908215929053e-01 0.0000000000000000e+00  3.2393389215768530e-02 -1.8697933510959003e-01 0.0000000000000000e+00  -2.1115089214308906e-03 -1.5350369326156937e-03 0.0000000000000000e+00  -2.1575496717884260e-03 -1.5480666115751294e-03 0.0000000000000000e+00  -2.1678799541174848e-03 -1.5586373581136668e-03 0.0000000000000000e+00  -2.1388478677232367e-03 -1.5571400732179214e-03 0.0000000000000000e+00  -2.0725532382365507e-03 -1.5370422966996199e-03 0.0000000000000000e+00  -1.9727233881094413e-03 -1.4954711824475013e-03 0.0000000000000000e+00  -1.8426318187821803e-03 -1.4315030768670804e-03 0.0000000000000000e+00  -1.6847308971361422e-03 -1.3444919721471384e-03 0.0000000000000000e+00  -1.5002122122980707e-03 -1.2336434829726000e-03 0.0000000000000000e+00  -1.2889589004291596e-03 -1.0970200511242936e-03 0.0000000000000000e+00  -1.0492537030113460e-03 -9.3064421286137480e-04 0.0000000000000000e+00  -7.7687302376265783e-04 -7.2580386481349481e-04 0.0000000000000000e+00  -4.5460956381354053e-04 -4.6170622096969560e-04 0.0000000000000000e+00  -2.0405608730132379e-03 -1.5954691927284514e-03 0.0000000000000000e+00  -2.0117931330874503e-03 -1.6836612295974159e-03 0.0000000000000000e+00  -1.9703031029353127e-03 -1.8308187366619308e-03 0.0000000000000000e+00  -1.9320799084379286e-03 -2.0576292906465663e-03 0.0000000000000000e+00  -1.9055507388133124e-03 -2.3739050214092710e-03 0.0000000000000000e+00  -1.9010970514750914e-03 -2.7866701125345093e-03 0.0000000000000000e+00  -1.9264000222198453e-03 -3.2996388592907229e-03 0.0000000000000000e+00  -1.9860214418301395e-03 -3.9170735805334634e-03 0.0000000000000000e+00  -2.0842685742027446e-03 -4.6440125317232708e-03 0.0000000000000000e+00  -2.2213968775373844e-03 -5.4885211237102388e-03 0.0000000000000000e+00  -2.3960810247048618e-03 -6.4625014201473230e-03 0.0000000000000000e+00  -2.6043971889524011e-03 -7.5791950984527984e-03 0.0000000000000000e+00  -2.8414653918944432e-03 -8.8530047792124075e-03 0.0000000000000000e+00  -3.1031548519018649e-03 -1.0283380135853752e-02 0.0000000000000000e+00  -3.3822782428056652e-03 -1.1838016200984262e-02 0.0000000000000000e+00  -3.9101599673913544e-03 -1.5069372367272403e-02 0.0000000000000000e+00  -4.1036099908697459e-03 -1.6578982865931725e-02 0.0000000000000000e+00  -4.2326268027735982e-03 -1.7953007742856616e-02 0.0000000000000000e+00  -4.3111565201767819e-03 -1.9177282499315173e-02 0.0000000000000000e+00  -4.3729548475340361e-03 -2.0256800134186053e-02 0.0000000000000000e+00  -4.4505569313353140e-03 -2.1194693249102520e-02 0.0000000000000000e+00  -4.5641965256725857e-03 -2.1984536775020613e-02 0.0000000000000000e+00  -4.7137064833702048e-03 -2.2614767401511863e-02 0.0000000000000000e+00  -4.8847047116611494e-03 -2.3077342542022969e-02 0.0000000000000000e+00  -5.0501048926120335e-03 -2.3376846414254179e-02 0.0000000000000000e+00  -5.1836163106841046e-03 -2.3537238339913467e-02 0.0000000000000000e+00  -5.2701784250559431e-03 -2.3600105653560077e-02 0.0000000000000000e+00  -5.3136223044664890e-03 -2.3611441529024776e-02 0.0000000000000000e+00  -5.3283777651391079e-03 -2.3608657067762155e-02 0.0000000000000000e+00  -5.3310056138129568e-03 -2.3606902880497330e-02 0.0000000000000000e+00  -5.3371339179889418e-03 -2.3607820990601189e-02 0.0000000000000000e+00  -5.3346134905672962e-03 -2.3607986140883365e-02 0.0000000000000000e+00  -5.3324594732121209e-03 -2.3608149063450396e-02 0.0000000000000000e+00  -5.3406309916185866e-03 -2.3603119373310187e-02 0.0000000000000000e+00  -5.3388929481492575e-03 -2.3595470610553660e-02 0.0000000000000000e+00  -5.3255141937812904e-03 -2.3586615604498436e-02 0.0000000000000000e+00  -5.2845483483016107e-03 -2.3592964235232213e-02 0.0000000000000000e+00  -5.1995095887681590e-03 -2.3649557193265273e-02 0.0000000000000000e+00  -5.0703881665975174e-03 -2.3805534292235933e-02 0.0000000000000000e+00  -4.9084727960619912e-03 -2.4099165187611918e-02 0.0000000000000000e+00  -4.7418658240285022e-03 -2.4556262676567887e-02 0.0000000000000000e+00  -4.5959596182501205e-03 -2.5180123804541731e-02 0.0000000000000000e+00  -4.4860424244441803e-03 -2.5961808601098865e-02 0.0000000000000000e+00  -4.4100262302331069e-03 -2.6889114815010523e-02 0.0000000000000000e+00  -4.3444514948157041e-03 -2.7951956148859192e-02 0.0000000000000000e+00  -4.2529485659169976e-03 -2.9153939096454445e-02 0.0000000000000000e+00  -4.0933503170102895e-03 -3.0492818770549580e-02 0.0000000000000000e+00  -3.8401079816516616e-03 -3.1958688873057514e-02 0.0000000000000000e+00  -3.0696090688723913e-03 -3.5052937895722933e-02 0.0000000000000000e+00  -2.6073567978280266e-03 -3.6522543007464374e-02 0.0000000000000000e+00  -2.1375650289492715e-03 -3.7857996342947946e-02 0.0000000000000000e+00  -1.6935450444806272e-03 -3.9028092861635090e-02 0.0000000000000000e+00  -1.3069816925786774e-03 -4.0030187810396092e-02 0.0000000000000000e+00  -1.0037709726048037e-03 -4.0858439023693467e-02 0.0000000000000000e+00  -7.9384190905271894e-04 -4.1502090774428145e-02 0.0000000000000000e+00  -6.6721605811175704e-04 -4.1949017904706329e-02 0.0000000000000000e+00  -6.0198958487537918e-04 -4.2192548797385501e-02 0.0000000000000000e+00  -5.6519064320893536e-04 -4.2240312171126018e-02 0.0000000000000000e+00  -5.2704707086817851e-04 -4.2121007557314398e-02 0.0000000000000000e+00  -4.7114844089170515e-04 -4.1881824733373658e-02 0.0000000000000000e+00  -4.0170024947213908e-04 -4.1574445790810238e-02 0.0000000000000000e+00  -3.3420634122387428e-04 -4.1241694931010854e-02 0.0000000000000000e+00  -2.8667155834750978e-04 -4.0903080924121323e-02 0.0000000000000000e+00  5.2499860485491446e-04 -4.0564848516764389e-02 0.0000000000000000e+00  2.6061647072602752e-04 -4.0564710087487278e-02 0.0000000000000000e+00  -4.0968381660023751e-06 -4.0564568370298530e-02 0.0000000000000000e+00  8.0466587013262099e-04 -4.0900524662530503e-02 0.0000000000000000e+00  8.5617773809910241e-04 -4.1229624948380693e-02 0.0000000000000000e+00  9.5279375767571726e-04 -4.1551431878136320e-02 0.0000000000000000e+00  1.1099452265845506e-03 -4.1880413638909965e-02 0.0000000000000000e+00  1.3427104823190269e-03 -4.2250169871778639e-02 0.0000000000000000e+00  1.6482568762811371e-03 -4.2707847149772604e-02 0.0000000000000000e+00  2.0122194390700923e-03 -4.3288169813501094e-02 0.0000000000000000e+00  2.4042644066548805e-03 -4.4012291334437452e-02 0.0000000000000000e+00  2.7988051010439802e-03 -4.4879145079582725e-02 0.0000000000000000e+00  3.1820174806944236e-03 -4.5877188922623047e-02 0.0000000000000000e+00  3.5580904795128542e-03 -4.6993966211838385e-02 0.0000000000000000e+00  3.9510475404089052e-03 -4.8222332249618388e-02 0.0000000000000000e+00  4.3952651559346807e-03 -4.9569439923248929e-02 0.0000000000000000e+00  4.9246889237190656e-03 -5.1038239170152648e-02 0.0000000000000000e+00  5.5519689573395488e-03 -5.2623280349185370e-02 0.0000000000000000e+00  7.0001527132541319e-03 -5.5933599621672402e-02 0.0000000000000000e+00  7.7306408181887672e-03 -5.7490828892358709e-02 0.0000000000000000e+00  8.4169316837905545e-03 -5.8898597529368449e-02 0.0000000000000000e+00  9.0335669253531325e-03 -6.0123049521409934e-02 0.0000000000000000e+00  9.5547859482750241e-03 -6.1156707596429646e-02 0.0000000000000000e+00  9.9637751615331647e-03 -6.1998563634613563e-02 0.0000000000000000e+00  1.0257230418763228e-02 -6.2636256311221994e-02 0.0000000000000000e+00  1.0449825209233800e-02 -6.3058037481882920e-02 0.0000000000000000e+00  1.0570672238559274e-02 -6.3258497328355118e-02 0.0000000000000000e+00  1.0654732956416653e-02 -6.3247988141127004e-02 0.0000000000000000e+00  1.0733268576461221e-02 -6.3057575248902986e-02 0.0000000000000000e+00  1.0824903667680338e-02 -6.2739629046030698e-02 0.0000000000000000e+00  1.0923259349229494e-02 -6.2348098713574912e-02 0.0000000000000000e+00  1.1012381207648083e-02 -6.1927628588770468e-02 0.0000000000000000e+00  1.1073339859087880e-02 -6.1499854848365947e-02 0.0000000000000000e+00  1.2101368935017990e-02 -6.1072306093292304e-02 0.0000000000000000e+00  1.1766444695314571e-02 -6.1071964553344141e-02 0.0000000000000000e+00  1.1431175192946478e-02 -6.1071617623075218e-02 0.0000000000000000e+00  1.2455701154784490e-02 -6.1498043588696351e-02 0.0000000000000000e+00  1.2520237943584313e-02 -6.1916072828046405e-02 0.0000000000000000e+00  1.2638893307754692e-02 -6.2325062098438723e-02 0.0000000000000000e+00  1.2827439904321655e-02 -6.2739202070288089e-02 0.0000000000000000e+00  1.3101252866970647e-02 -6.3192093195293689e-02 0.0000000000000000e+00  1.3457446167137404e-02 -6.3731321685367479e-02 0.0000000000000000e+00  1.3880636085236819e-02 -6.4391533135958898e-02 0.0000000000000000e+00  1.4340539645170710e-02 -6.5191551980689724e-02 0.0000000000000000e+00  1.4814291814500839e-02 -6.6128063291460412e-02 0.0000000000000000e+00  1.5291675256043599e-02 -6.7188462369266483e-02 0.0000000000000000e+00  1.5783846146528457e-02 -6.8358109666460179e-02 0.0000000000000000e+00  1.6323186525914912e-02 -6.9631511684145331e-02 0.0000000000000000e+00  1.6956644520766142e-02 -7.1012472100470778e-02 0.0000000000000000e+00  1.7729148192204669e-02 -7.2507325309730794e-02 0.0000000000000000e+00  1.8662607200905668e-02 -7.4110613963327382e-02 0.0000000000000000e+00  2.0889572497107847e-02 -7.7440743796724942e-02 0.0000000000000000e+00  2.2048993237231723e-02 -7.8992329490800955e-02 0.0000000000000000e+00  2.3157977913577925e-02 -8.0374591352296326e-02 0.0000000000000000e+00  2.4174118941623992e-02 -8.1545811156558401e-02 0.0000000000000000e+00  2.5061838501486206e-02 -8.2492188426587496e-02 0.0000000000000000e+00  2.5800903703964179e-02 -8.3208162932631016e-02 0.0000000000000000e+00  2.6388903033933646e-02 -8.3677221547377320e-02 0.0000000000000000e+00  2.6844265584325906e-02 -8.3886681117642192e-02 0.0000000000000000e+00  2.7200242684757694e-02 -8.3833443235228386e-02 0.0000000000000000e+00  2.7494268708364442e-02 -8.3533396379402380e-02 0.0000000000000000e+00  2.7757629197504026e-02 -8.3025011563062745e-02 0.0000000000000000e+00  2.8006655943255385e-02 -8.2368286881636832e-02 0.0000000000000000e+00  2.8231526686291919e-02 -8.1623279207928473e-02 0.0000000000000000e+00  2.8413289209028272e-02 -8.0839172876869189e-02 0.0000000000000000e+00  2.8531098538255407e-02 -8.0040991081858998e-02 0.0000000000000000e+00  3.0459956054678116e-02 -7.9243783196513859e-02 0.0000000000000000e+00  2.9831555703256310e-02 -7.9241986696857558e-02 0.0000000000000000e+00  2.9202734825211251e-02 -7.9240183267621264e-02 0.0000000000000000e+00  3.1124273656358677e-02 -8.0044946222756763e-02 0.0000000000000000e+00  3.1241878259464683e-02 -8.0833386122870443e-02 0.0000000000000000e+00  3.1449859978182400e-02 -8.1605303803458928e-02 0.0000000000000000e+00  3.1763889683809970e-02 -8.2371271701062621e-02 0.0000000000000000e+00  3.2199364346242959e-02 -8.3161923701108642e-02 0.0000000000000000e+00  3.2753617219610079e-02 -8.4022327329787871e-02 0.0000000000000000e+00  3.3411945328115041e-02 -8.4984462267098923e-02 0.0000000000000000e+00  3.4146418573362355e-02 -8.6064383207785339e-02 0.0000000000000000e+00  3.4939128254422219e-02 -8.7256741130986096e-02 0.0000000000000000e+00  3.5787711865750173e-02 -8.8549224162517842e-02 0.0000000000000000e+00  3.6712761721586828e-02 -8.9931818884482845e-02 0.0000000000000000e+00  3.7754927513014964e-02 -9.1408256408896951e-02 0.0000000000000000e+00  3.8961452547209528e-02 -9.2999206280691707e-02 0.0000000000000000e+00  4.0358525060462870e-02 -9.4735700967773950e-02 0.0000000000000000e+00  4.1920242053883519e-02 -9.6637333079129625e-02 0.0000000000000000e+00  4.5061769965249049e-02 -1.0079171636678488e-01 0.0000000000000000e+00  4.6360735132517192e-02 -1.0284484445148427e-01 0.0000000000000000e+00  4.7392712212907299e-02 -1.0475805904416650e-01 0.0000000000000000e+00  4.8180427189965007e-02 -1.0646858092706422e-01 0.0000000000000000e+00  4.8777889462437725e-02 -1.0797036585136521e-01 0.0000000000000000e+00  4.9233523004699652e-02 -1.0928887119572825e-01 0.0000000000000000e+00  4.9581702080314309e-02 -1.1045326845553249e-01 0.0000000000000000e+00  4.9843560089086546e-02 -1.1149304162423357e-01 0.0000000000000000e+00  5.0030472637099407e-02 -1.1243085671775949e-01 0.0000000000000000e+00  5.0150690573796321e-02 -1.1328032801844860e-01 0.0000000000000000e+00  5.0209662862926455e-02 -1.1404818687268566e-01 0.0000000000000000e+00  5.0214125434671679e-02 -1.1473222224974144e-01 0.0000000000000000e+00  5.0176450028157168e-02 -1.1532674055775226e-01 0.0000000000000000e+00  5.0111230490221793e-02 -1.1582473553266384e-01 0.0000000000000000e+00  5.0050244556369361e-02 -1.1622922136937749e-01 0.0000000000000000e+00  4.7362367624348187e-02 -1.1928111291368733e-01 0.0000000000000000e+00  4.7673076159567715e-02 -1.1888737319876155e-01 0.0000000000000000e+00  4.7946033433599988e-02 -1.1849541983385153e-01 0.0000000000000000e+00  4.8176389721073007e-02 -1.1811780676037978e-01 0.0000000000000000e+00  4.8366392559461471e-02 -1.1776616135404261e-01 0.0000000000000000e+00  4.8522782015524096e-02 -1.1744947759416283e-01 0.0000000000000000e+00  4.8655160830129558e-02 -1.1717502210469867e-01 0.0000000000000000e+00  4.8775235249748840e-02 -1.1694852826829046e-01 0.0000000000000000e+00  4.8896541462598420e-02 -1.1677412699086812e-01 0.0000000000000000e+00  4.9034053804838690e-02 -1.1665370992285108e-01 0.0000000000000000e+00  4.9204621917087646e-02 -1.1658645836627730e-01 0.0000000000000000e+00  4.9424667918578843e-02 -1.1656396664608264e-01 0.0000000000000000e+00  4.9704081801252617e-02 -1.1657036337721963e-01 0.0000000000000000e+00  9.6555146256722096e-02 -2.5141863304766648e-01 0.0000000000000000e+00  9.6399334801863440e-02 -2.4822681520201445e-01 0.0000000000000000e+00  9.6231446589775352e-02 -2.4500807507295291e-01 0.0000000000000000e+00  9.6042565391693202e-02 -2.4174403489364699e-01 0.0000000000000000e+00  9.5821361326713511e-02 -2.3842779273399325e-01 0.0000000000000000e+00  9.5560119872639751e-02 -2.3506058582293343e-01 0.0000000000000000e+00  9.5254287982125985e-02 -2.3164785787403000e-01 0.0000000000000000e+00  9.4901443474089367e-02 -2.2819810448189259e-01 0.0000000000000000e+00  9.4502684375127877e-02 -2.2472122264210248e-01 0.0000000000000000e+00  9.4060810262643763e-02 -2.2122736620905875e-01 0.0000000000000000e+00  9.3580166366310891e-02 -2.1772620230954984e-01 0.0000000000000000e+00  9.3065705013143235e-02 -2.1422694649443499e-01 0.0000000000000000e+00  9.2522645587816144e-02 -2.1073806610672099e-01 0.0000000000000000e+00  9.1955690902918996e-02 -2.0726734790925946e-01 0.0000000000000000e+00  9.1368547768353320e-02 -2.0382229156927645e-01 0.0000000000000000e+00  9.0763584053127330e-02 -2.0041070555827800e-01 0.0000000000000000e+00  9.0142087698905832e-02 -1.9704086561354858e-01 0.0000000000000000e+00  8.9503404458079333e-02 -1.9372307977323264e-01 0.0000000000000000e+00  8.8845982304280244e-02 -1.9046930189695785e-01 0.0000000000000000e+00  8.8167097289481161e-02 -1.8729474364787524e-01 0.0000000000000000e+00  8.7463330616208271e-02 -1.8421925734718872e-01 0.0000000000000000e+00  8.6730834815606631e-02 -1.8127039724640920e-01 0.0000000000000000e+00  8.5965782376176469e-02 -1.7849506293880135e-01 0.0000000000000000e+00  8.5185454468180530e-02 -1.7598518228664464e-01 0.0000000000000000e+00  8.4419911366989217e-02 -1.7368570604835937e-01 0.0000000000000000e+00  8.3669240431757524e-02 -1.7153561113139645e-01 0.0000000000000000e+00  8.2930833410913743e-02 -1.6951022259074167e-01 0.0000000000000000e+00  8.2203939014530408e-02 -1.6759244229545114e-01 0.0000000000000000e+00  8.1488119184205399e-02 -1.6576969394894620e-01 0.0000000000000000e+00  8.0784203141818958e-02 -1.6403193459675150e-01 0.0000000000000000e+00  8.0093525746310804e-02 -1.6237035373784300e-01 0.0000000000000000e+00  7.9418189731807268e-02 -1.6077685981048934e-01 0.0000000000000000e+00  7.8760756297430054e-02 -1.5924359642843455e-01 0.0000000000000000e+00  7.8123855259095779e-02 -1.5776296910436358e-01 0.0000000000000000e+00  7.7510363125407683e-02 -1.5632707213708075e-01 0.0000000000000000e+00  7.6922686474028668e-02 -1.5492808707757424e-01 0.0000000000000000e+00  7.6362872956865779e-02 -1.5355836409930732e-01 0.0000000000000000e+00 