<?xml version="1.0"?>
<VTKFile type="UnstructuredGrid"  version="0.1"  >
<UnstructuredGrid>
<Piece  NumberOfPoints="12853" NumberOfCells="23493">
<Points>
<DataArray  type="Float64"  NumberOfComponents="3"  format="ascii">-3.187178156719634e-14 1.7 0  0 0 0  1.3 3 0  -3.185690647650846e-14 4.300000000000001 0  -3.187178156719634e-14 4.699999999999999 0  1.3 6 0  -3.185690647650846e-14 7.300000000000001 0  -3.187178156719634e-14 7.699999999999999 0  1.3 9 0  -3.185690647650846e-14 10.3 0  -3.187178156719634e-14 10.7 0  1.3 12 0  -3.185690647650846e-14 13.3 0  -3.187178156719634e-14 13.7 0  1.3 15 0  -3.185690647650846e-14 16.3 0  0 18 0  18 18 0  17.99999999999997 16.3 0  17.99999999999997 13.7 0  17.99999999999997 13.3 0  17.99999999999997 10.7 0  17.99999999999997 10.3 0  17.99999999999997 7.7 0  17.99999999999997 7.3 0  17.99999999999997 4.7 0  17.99999999999997 4.3 0  17.99999999999997 1.7 0  18 0 0  4.3 3 0  7.3 3 0  10.3 3 0  4.3 6 0  7.3 6 0  10.3 6 0  13.3 3 0  16.3 3 0  13.3 6 0  16.3 6 0  4.3 9 0  4.3 12 0  7.3 9 0  10.3 9 0  7.3 12 0  10.3 12 0  4.3 15 0  7.3 15 0  10.3 15 0  13.3 9 0  13.3 12 0  16.3 9 0  16.3 12 0  13.3 15 0  16.3 15 0  0 1.578571428571429 0  0 1.457142857142856 0  0 1.335714285714285 0  0 1.214285714285712 0  0 1.092857142857142 0  0 0.9714285714285715 0  0 0.8499999999999979 0  0 0.7285714285714278 0  0 0.6071428571428577 0  0 0.485714285714284 0  0 0.3642857142857139 0  0 0.2428571428571438 0  0 0.1214285714285701 0  0.1274222824284281 1.706259855326144 0  0.2536174186209668 1.7249791354758 0  0.3773700804308007 1.755977563548128 0  0.497488462074617 1.798956607735327 0  0.6128157578737968 1.853502356347138 0  0.7222413029254824 1.919089504006691 0  0.8247112694127393 1.995086410628442 0  0.9192388155425116 2.080761184457488 0  1.004913589371558 2.17528873058726 0  1.080910495993309 2.277758697074517 0  1.146497643652861 2.387184242126203 0  1.201043392264673 2.502511537925383 0  1.244022436451871 2.622629919569199 0  1.275020864524199 2.746382581379033 0  1.293740144673856 2.872577717571571 0  1.293740144673856 3.127422282428428 0  1.2750208645242 3.253617418620966 0  1.244022436451872 3.3773700804308 0  1.201043392264673 3.497488462074616 0  1.146497643652862 3.612815757873796 0  1.08091049599331 3.722241302925481 0  1.00491358937156 3.824711269412738 0  0.9192388155425134 3.91923881554251 0  0.8247112694127412 4.004913589371556 0  0.7222413029254846 4.080910495993308 0  0.6128157578737984 4.146497643652861 0  0.4974884620746181 4.201043392264673 0  0.3773700804308024 4.244022436451871 0  0.2536174186209674 4.275020864524199 0  0.127422282428429 4.293740144673856 0  0 4.6 0  0 4.5 0  0 4.4 0  0.1274222824284281 4.706259855326143 0  0.2536174186209668 4.724979135475801 0  0.3773700804308007 4.755977563548129 0  0.497488462074617 4.798956607735327 0  0.6128157578737968 4.853502356347138 0  0.7222413029254824 4.919089504006691 0  0.8247112694127393 4.995086410628442 0  0.9192388155425116 5.080761184457488 0  1.004913589371558 5.17528873058726 0  1.080910495993309 5.277758697074518 0  1.146497643652861 5.387184242126203 0  1.201043392264673 5.502511537925383 0  1.244022436451871 5.622629919569198 0  1.275020864524199 5.746382581379033 0  1.293740144673856 5.872577717571572 0  1.293740144673856 6.127422282428428 0  1.2750208645242 6.253617418620967 0  1.244022436451872 6.377370080430801 0  1.201043392264673 6.497488462074616 0  1.146497643652862 6.612815757873795 0  1.08091049599331 6.722241302925481 0  1.00491358937156 6.824711269412737 0  0.9192388155425134 6.91923881554251 0  0.8247112694127412 7.004913589371556 0  0.7222413029254846 7.080910495993308 0  0.6128157578737984 7.146497643652861 0  0.4974884620746181 7.201043392264673 0  0.3773700804308024 7.244022436451871 0  0.2536174186209674 7.275020864524199 0  0.127422282428429 7.293740144673856 0  0 7.6 0  0 7.5 0  0 7.4 0  0.1274222824284281 7.706259855326143 0  0.2536174186209668 7.724979135475801 0  0.3773700804308007 7.755977563548129 0  0.497488462074617 7.798956607735327 0  0.6128157578737968 7.853502356347138 0  0.7222413029254824 7.919089504006691 0  0.8247112694127393 7.995086410628442 0  0.9192388155425116 8.080761184457488 0  1.004913589371558 8.17528873058726 0  1.080910495993309 8.277758697074518 0  1.146497643652861 8.387184242126203 0  1.201043392264673 8.502511537925383 0  1.244022436451871 8.622629919569199 0  1.275020864524199 8.746382581379033 0  1.293740144673856 8.872577717571572 0  1.293740144673856 9.127422282428428 0  1.2750208645242 9.253617418620966 0  1.244022436451872 9.377370080430801 0  1.201043392264673 9.497488462074616 0  1.146497643652862 9.612815757873795 0  1.08091049599331 9.722241302925481 0  1.00491358937156 9.824711269412738 0  0.9192388155425134 9.91923881554251 0  0.8247112694127412 10.00491358937156 0  0.7222413029254846 10.08091049599331 0  0.6128157578737984 10.14649764365286 0  0.4974884620746181 10.20104339226467 0  0.3773700804308024 10.24402243645187 0  0.2536174186209674 10.2750208645242 0  0.127422282428429 10.29374014467386 0  0 10.6 0  0 10.5 0  0 10.4 0  0.1274222824284281 10.70625985532614 0  0.2536174186209668 10.7249791354758 0  0.3773700804308007 10.75597756354813 0  0.497488462074617 10.79895660773533 0  0.6128157578737968 10.85350235634714 0  0.7222413029254824 10.91908950400669 0  0.8247112694127393 10.99508641062844 0  0.9192388155425116 11.08076118445749 0  1.004913589371558 11.17528873058726 0  1.080910495993309 11.27775869707452 0  1.146497643652861 11.3871842421262 0  1.201043392264673 11.50251153792538 0  1.244022436451871 11.6226299195692 0  1.275020864524199 11.74638258137903 0  1.293740144673856 11.87257771757157 0  1.293740144673856 12.12742228242843 0  1.2750208645242 12.25361741862097 0  1.244022436451872 12.3773700804308 0  1.201043392264673 12.49748846207462 0  1.146497643652862 12.6128157578738 0  1.08091049599331 12.72224130292548 0  1.00491358937156 12.82471126941274 0  0.9192388155425134 12.91923881554251 0  0.8247112694127412 13.00491358937156 0  0.7222413029254846 13.08091049599331 0  0.6128157578737984 13.14649764365286 0  0.4974884620746181 13.20104339226467 0  0.3773700804308024 13.24402243645187 0  0.2536174186209674 13.2750208645242 0  0.127422282428429 13.29374014467386 0  0 13.6 0  0 13.5 0  0 13.4 0  0.1274222824284281 13.70625985532614 0  0.2536174186209668 13.7249791354758 0  0.3773700804308007 13.75597756354813 0  0.497488462074617 13.79895660773533 0  0.6128157578737968 13.85350235634714 0  0.7222413029254824 13.91908950400669 0  0.8247112694127393 13.99508641062844 0  0.9192388155425116 14.08076118445749 0  1.004913589371558 14.17528873058726 0  1.080910495993309 14.27775869707452 0  1.146497643652861 14.3871842421262 0  1.201043392264673 14.50251153792538 0  1.244022436451871 14.6226299195692 0  1.275020864524199 14.74638258137903 0  1.293740144673856 14.87257771757157 0  1.293740144673856 15.12742228242843 0  1.2750208645242 15.25361741862097 0  1.244022436451872 15.3773700804308 0  1.201043392264673 15.49748846207462 0  1.146497643652862 15.6128157578738 0  1.08091049599331 15.72224130292548 0  1.00491358937156 15.82471126941274 0  0.9192388155425134 15.91923881554251 0  0.8247112694127412 16.00491358937156 0  0.7222413029254846 16.08091049599331 0  0.6128157578737984 16.14649764365286 0  0.4974884620746181 16.20104339226467 0  0.3773700804308024 16.24402243645187 0  0.2536174186209674 16.2750208645242 0  0.127422282428429 16.29374014467385 0  0 17.87857142857143 0  0 17.75714285714286 0  0 17.63571428571429 0  0 17.51428571428571 0  0 17.39285714285714 0  0 17.27142857142857 0  0 17.15 0  0 17.02857142857143 0  0 16.90714285714286 0  0 16.78571428571428 0  0 16.66428571428571 0  0 16.54285714285714 0  0 16.42142857142857 0  17.8705035971223 18 0  17.7410071942446 18 0  17.61151079136691 18 0  17.48201438848921 18 0  17.35251798561151 18 0  17.22302158273381 18 0  17.09352517985612 18 0  16.96402877697842 18 0  16.83453237410072 18 0  16.70503597122302 18 0  16.57553956834532 18 0  16.44604316546762 18 0  16.31654676258993 18 0  16.18705035971223 18 0  16.05755395683453 18 0  15.92805755395683 18 0  15.79856115107913 18 0  15.66906474820144 18 0  15.53956834532374 18 0  15.41007194244604 18 0  15.28057553956834 18 0  15.15107913669064 18 0  15.02158273381295 18 0  14.89208633093525 18 0  14.76258992805755 18 0  14.63309352517985 18 0  14.50359712230215 18 0  14.37410071942446 18 0  14.24460431654676 18 0  14.11510791366906 18 0  13.98561151079136 18 0  13.85611510791366 18 0  13.72661870503597 18 0  13.59712230215827 18 0  13.46762589928057 18 0  13.33812949640287 18 0  13.20863309352517 18 0  13.07913669064748 18 0  12.94964028776977 18 0  12.82014388489208 18 0  12.69064748201438 18 0  12.56115107913668 18 0  12.43165467625898 18 0  12.30215827338128 18 0  12.17266187050359 18 0  12.04316546762589 18 0  11.91366906474819 18 0  11.78417266187049 18 0  11.65467625899279 18 0  11.52517985611509 18 0  11.3956834532374 18 0  11.2661870503597 18 0  11.136690647482 18 0  11.0071942446043 18 0  10.8776978417266 18 0  10.7482014388489 18 0  10.6187050359712 18 0  10.48920863309351 18 0  10.35971223021581 18 0  10.23021582733811 18 0  10.10071942446041 18 0  9.971223021582714 18 0  9.841726618705016 18 0  9.712230215827317 18 0  9.582733812949618 18 0  9.453237410071921 18 0  9.323741007194224 18 0  9.194244604316525 18 0  9.064748201438828 18 0  8.935251798561131 18 0  8.805755395683434 18 0  8.676258992805735 18 0  8.546762589928038 18 0  8.417266187050341 18 0  8.287769784172642 18 0  8.158273381294947 18 0  8.028776978417248 18 0  7.899280575539549 18 0  7.769784172661854 18 0  7.640287769784155 18 0  7.510791366906458 18 0  7.381294964028761 18 0  7.251798561151062 18 0  7.122302158273365 18 0  6.992805755395668 18 0  6.86330935251797 18 0  6.733812949640273 18 0  6.604316546762576 18 0  6.474820143884878 18 0  6.34532374100718 18 0  6.215827338129483 18 0  6.086330935251786 18 0  5.956834532374087 18 0  5.827338129496392 18 0  5.697
[...]
<PointData  Vectors="f_21"> 
<DataArray  type="Float64"  Name="f_21"  NumberOfComponents="3" format="ascii">-1.5024441542059196e-03 -1.1237088729669303e-03 0.0000000000000000e+00  0.0000000000000000e+00 0.0000000000000000e+00 0.0000000000000000e+00  -2.7115079508968770e-03 -9.8804339544923403e-03 0.0000000000000000e+00  -4.0028096797154458e-03 -1.7380877645825511e-02 0.0000000000000000e+00  -4.0282756135397394e-03 -1.7380686288637582e-02 0.0000000000000000e+00  -2.7765155104817040e-03 -2.4593141099288871e-02 0.0000000000000000e+00  -6.1859913160616721e-04 -2.9945350670759839e-02 0.0000000000000000e+00  1.0076729970160696e-04 -2.9945730034790057e-02 0.0000000000000000e+00  3.8722876872743978e-03 -3.9819980417013130e-02 0.0000000000000000e+00  7.1995402892620491e-03 -4.4919065864583003e-02 0.0000000000000000e+00  8.1324797278430911e-03 -4.4919877171994083e-02 0.0000000000000000e+00  1.3239091176931684e-02 -5.5546061407981392e-02 0.0000000000000000e+00  1.9332972137997454e-02 -5.8358695741843873e-02 0.0000000000000000e+00  2.1074389275881740e-02 -5.8362281584489244e-02 0.0000000000000000e+00  2.9778927628883772e-02 -7.2235718084500855e-02 0.0000000000000000e+00  3.4345707002718870e-02 -8.5258342853433852e-02 0.0000000000000000e+00  3.2101325519570442e-02 -8.7505646681989763e-02 0.0000000000000000e+00  6.8040241069537377e-02 -1.8395903680887593e-01 0.0000000000000000e+00  3.6855025576737366e-02 -1.8136204347265913e-01 0.0000000000000000e+00  3.0237110922566635e-02 -1.2044908544573400e-01 0.0000000000000000e+00  2.9891327531922838e-02 -1.2044910943953671e-01 0.0000000000000000e+00  2.4203540328829012e-02 -9.7145186827204050e-02 0.0000000000000000e+00  2.2108015728156741e-02 -9.7140290731441370e-02 0.0000000000000000e+00  1.5782130190077421e-02 -6.3398118567204884e-02 0.0000000000000000e+00  1.4959528222731718e-02 -6.3397774198148085e-02 0.0000000000000000e+00  1.0262462426647976e-02 -3.5955065842543585e-02 0.0000000000000000e+00  9.1904030015865987e-03 -3.5954073232952147e-02 0.0000000000000000e+00  2.5161255296949031e-03 -1.9726309529116263e-03 0.0000000000000000e+00  0.0000000000000000e+00 0.0000000000000000e+00 0.0000000000000000e+00  -1.5789494825183749e-03 -9.9425024790049943e-03 0.0000000000000000e+00  -7.6300828093758680e-04 -1.0048851403862908e-02 0.0000000000000000e+00  -4.6417134685929100e-04 -1.1174180744275706e-02 0.0000000000000000e+00  5.3472209690091170e-05 -2.5392168545633392e-02 0.0000000000000000e+00  1.5995739340708818e-03 -2.6160342455781912e-02 0.0000000000000000e+00  3.6170192483588690e-03 -2.9536516925049848e-02 0.0000000000000000e+00  4.0720792253187368e-04 -1.3466987601406834e-02 0.0000000000000000e+00  1.9954774568298607e-03 -1.7200316005928282e-02 0.0000000000000000e+00  5.0375172556035965e-03 -3.6370339169330607e-02 0.0000000000000000e+00  9.6205281302899556e-03 -4.5878552641610171e-02 0.0000000000000000e+00  5.8158529262751198e-03 -4.1162021179572787e-02 0.0000000000000000e+00  1.6374645081660318e-02 -5.6847179370500267e-02 0.0000000000000000e+00  8.2211033177049600e-03 -4.2219604674651516e-02 0.0000000000000000e+00  9.3506658651432081e-03 -4.7838223822833002e-02 0.0000000000000000e+00  1.7116297933810958e-02 -5.7905650203379434e-02 0.0000000000000000e+00  1.9181346760212017e-02 -6.5663628955618586e-02 0.0000000000000000e+00  3.0880672502267913e-02 -7.2463182891219599e-02 0.0000000000000000e+00  3.2420409206286797e-02 -7.2631159954200789e-02 0.0000000000000000e+00  3.0842808946459684e-02 -8.2492266330762232e-02 0.0000000000000000e+00  1.2638402943965272e-02 -5.8778301287342426e-02 0.0000000000000000e+00  1.8328240166874486e-02 -8.1080761837244220e-02 0.0000000000000000e+00  1.3959358874696364e-02 -7.4571065340479165e-02 0.0000000000000000e+00  2.5761201055805562e-02 -1.0404656925994793e-01 0.0000000000000000e+00  3.1967632202662244e-02 -1.0122715713073736e-01 0.0000000000000000e+00  2.2511667238310121e-02 -1.3566108921663786e-01 0.0000000000000000e+00  -1.5485106782363658e-03 -1.1263100805762797e-03 0.0000000000000000e+00  -1.5820709176301480e-03 -1.1358472540581404e-03 0.0000000000000000e+00  -1.5894342462455034e-03 -1.1435400252749930e-03 0.0000000000000000e+00  -1.5679490473056448e-03 -1.1423446884513636e-03 0.0000000000000000e+00  -1.5191739645087127e-03 -1.1274813439905071e-03 0.0000000000000000e+00  -1.4458530864107594e-03 -1.0968570224812258e-03 0.0000000000000000e+00  -1.3503922703146632e-03 -1.0498045369831783e-03 0.0000000000000000e+00  -1.2345915297418640e-03 -9.8586105539064431e-04 0.0000000000000000e+00  -1.0993242981052502e-03 -9.0445336208763477e-04 0.0000000000000000e+00  -9.4450275661991489e-04 -8.0417010002530704e-04 0.0000000000000000e+00  -7.6886370644503501e-04 -6.8210493436066263e-04 0.0000000000000000e+00  -5.6930321735690478e-04 -5.3188344870728143e-04 0.0000000000000000e+00  -3.3320085891649925e-04 -3.3828733973358734e-04 0.0000000000000000e+00  -1.4966589329330859e-03 -1.1704595763174467e-03 0.0000000000000000e+00  -1.4756082265729752e-03 -1.2350138025600051e-03 0.0000000000000000e+00  -1.4453006502907176e-03 -1.3428419111745030e-03 0.0000000000000000e+00  -1.4174802216875314e-03 -1.5090871779430146e-03 0.0000000000000000e+00  -1.3983434399168107e-03 -1.7409244217864159e-03 0.0000000000000000e+00  -1.3955224667662712e-03 -2.0434915200359745e-03 0.0000000000000000e+00  -1.4146731991385372e-03 -2.4195118124175278e-03 0.0000000000000000e+00  -1.4591774068842668e-03 -2.8721274685453960e-03 0.0000000000000000e+00  -1.5322382536266691e-03 -3.4050693651167673e-03 0.0000000000000000e+00  -1.6341099409938270e-03 -4.0243101574051121e-03 0.0000000000000000e+00  -1.7639166949545311e-03 -4.7386632167659461e-03 0.0000000000000000e+00  -1.9189131753075339e-03 -5.5579485189621606e-03 0.0000000000000000e+00  -2.0956840443497179e-03 -6.4928563777516884e-03 0.0000000000000000e+00  -2.2913628918666568e-03 -7.5431087689292881e-03 0.0000000000000000e+00  -2.5008097033671767e-03 -8.6850836036540709e-03 0.0000000000000000e+00  -2.9003772490996237e-03 -1.1059771330621868e-02 0.0000000000000000e+00  -3.0495303333539984e-03 -1.2169382707468139e-02 0.0000000000000000e+00  -3.1515963504763879e-03 -1.3179298680791266e-02 0.0000000000000000e+00  -3.2163416730855731e-03 -1.4079167336444738e-02 0.0000000000000000e+00  -3.2681827964986115e-03 -1.4872841168532264e-02 0.0000000000000000e+00  -3.3308320796756222e-03 -1.5562867149151366e-02 0.0000000000000000e+00  -3.4191414206667932e-03 -1.6144779458911220e-02 0.0000000000000000e+00  -3.5331017076977497e-03 -1.6610253482268102e-02 0.0000000000000000e+00  -3.6622778226397573e-03 -1.6953443887509700e-02 0.0000000000000000e+00  -3.7869004533295806e-03 -1.7177650229378807e-02 0.0000000000000000e+00  -3.8877186991300989e-03 -1.7300316783566083e-02 0.0000000000000000e+00  -3.9536660036765849e-03 -1.7351804804355109e-02 0.0000000000000000e+00  -3.9875041618756719e-03 -1.7365734314155713e-02 0.0000000000000000e+00  -3.9997657803413104e-03 -1.7369466242712139e-02 0.0000000000000000e+00  -4.0025661220636603e-03 -1.7374057612554589e-02 0.0000000000000000e+00  -4.0213154701022836e-03 -1.7380661509144902e-02 0.0000000000000000e+00  -4.0148137219124403e-03 -1.7380783175692978e-02 0.0000000000000000e+00  -4.0085793628401650e-03 -1.7380903222108088e-02 0.0000000000000000e+00  -4.0288238832827958e-03 -1.7371284770302600e-02 0.0000000000000000e+00  -4.0284188595410978e-03 -1.7359806766651546e-02 0.0000000000000000e+00  -4.0200511345097638e-03 -1.7347566789171098e-02 0.0000000000000000e+00  -3.9920258128202241e-03 -1.7346657078090359e-02 0.0000000000000000e+00  -3.9322519348131421e-03 -1.7382821456395605e-02 0.0000000000000000e+00  -3.8407173219602436e-03 -1.7492135084978495e-02 0.0000000000000000e+00  -3.7256927109066999e-03 -1.7702708215550728e-02 0.0000000000000000e+00  -3.6077962561994166e-03 -1.8033547055903775e-02 0.0000000000000000e+00  -3.5057033789017019e-03 -1.8487194264859539e-02 0.0000000000000000e+00  -3.4307521536815445e-03 -1.9057273112673870e-02 0.0000000000000000e+00  -3.3816538436600412e-03 -1.9735065271262873e-02 0.0000000000000000e+00  -3.3416339844655365e-03 -2.0513417575319052e-02 0.0000000000000000e+00  -3.2846738616037438e-03 -2.1395219723958386e-02 0.0000000000000000e+00  -3.1806921013686575e-03 -2.2378833602088935e-02 0.0000000000000000e+00  -3.0116407010072248e-03 -2.3456833767186224e-02 0.0000000000000000e+00  -2.4895457731470439e-03 -2.5733265208157993e-02 0.0000000000000000e+00  -2.1739613733577899e-03 -2.6814461012080980e-02 0.0000000000000000e+00  -1.8520228056615753e-03 -2.7797318088527624e-02 0.0000000000000000e+00  -1.5472204570379394e-03 -2.8659517712930644e-02 0.0000000000000000e+00  -1.2824411638227432e-03 -2.9399572583508220e-02 0.0000000000000000e+00  -1.0766468310266434e-03 -3.0013661065013717e-02 0.0000000000000000e+00  -9.3731769948475930e-04 -3.0494200920962094e-02 0.0000000000000000e+00  -8.5742746706171809e-04 -3.0832416860000933e-02 0.0000000000000000e+00  -8.2113257374045144e-04 -3.1023363550409362e-02 0.0000000000000000e+00  -8.0440792773955883e-04 -3.1072399107180779e-02 0.0000000000000000e+00  -7.8543347645428834e-04 -3.1000240128411155e-02 0.0000000000000000e+00  -7.5208093723229668e-04 -3.0841156786878092e-02 0.0000000000000000e+00  -7.0729069807294468e-04 -3.0632773370679368e-02 0.0000000000000000e+00  -6.6229507664187462e-04 -3.0406284361522054e-02 0.0000000000000000e+00  -6.3021170828466094e-04 -3.0175831401137072e-02 0.0000000000000000e+00  -7.8483406803641527e-05 -2.9945548750768141e-02 0.0000000000000000e+00  -2.5820306083349919e-04 -2.9945542998777885e-02 0.0000000000000000e+00  -4.3816349289861286e-04 -2.9945535051712813e-02 0.0000000000000000e+00  1.1168092904035702e-04 -3.0173568902386830e-02 0.0000000000000000e+00  1.4692377696259583e-04 -3.0397027640817632e-02 0.0000000000000000e+00  2.1349121025610295e-04 -3.0615478220952824e-02 0.0000000000000000e+00  3.2272421534156563e-04 -3.0839685652332090e-02 0.0000000000000000e+00  4.8572571766570920e-04 -3.1094419789961622e-02 0.0000000000000000e+00  7.0048858800323939e-04 -3.1414383287600330e-02 0.0000000000000000e+00  9.5654565930209311e-04 -3.1825196460575612e-02 0.0000000000000000e+00  1.2316706664577013e-03 -3.2342580001339410e-02 0.0000000000000000e+00  1.5070146989730375e-03 -3.2965993700057358e-02 0.0000000000000000e+00  1.7722262752417482e-03 -3.3687217014446970e-02 0.0000000000000000e+00  2.0300164044873333e-03 -3.4497322347489118e-02 0.0000000000000000e+00  2.2975048375926503e-03 -3.5391165145640426e-02 0.0000000000000000e+00  2.5992816140520936e-03 -3.6374019067305190e-02 0.0000000000000000e+00  2.9597660289342794e-03 -3.7447648605179046e-02 0.0000000000000000e+00  3.3883460621812406e-03 -3.8607572414026785e-02 0.0000000000000000e+00  4.3830287562493927e-03 -4.1030250247471117e-02 0.0000000000000000e+00  4.8877916230270569e-03 -4.2169605548858707e-02 0.0000000000000000e+00  5.3640650124734410e-03 -4.3199811381952093e-02 0.0000000000000000e+00  5.7933964277048404e-03 -4.4096798704970810e-02 0.0000000000000000e+00  6.1565353999488322e-03 -4.4855597605981623e-02 0.0000000000000000e+00  6.4405465138831905e-03 -4.5475766735100835e-02 0.0000000000000000e+00  6.6423745906740422e-03 -4.5948512981071839e-02 0.0000000000000000e+00  6.7721926605830941e-03 -4.6265282807567365e-02 0.0000000000000000e+00  6.8508716411715097e-03 -4.6421990607510524e-02 0.0000000000000000e+00  6.9037477593703687e-03 -4.6425925576563110e-02 0.0000000000000000e+00  6.9536221516134722e-03 -4.6299455561218540e-02 0.0000000000000000e+00  7.0141887482925687e-03 -4.6080548706841834e-02 0.0000000000000000e+00  7.0809160849652792e-03 -4.5808419033793284e-02 0.0000000000000000e+00  7.1422566147912349e-03 -4.5515543791318294e-02 0.0000000000000000e+00  7.1844427151196346e-03 -4.5217613522591807e-02 0.0000000000000000e+00  7.8998540233161663e-03 -4.4919586076392903e-02 0.0000000000000000e+00  7.6667453214039928e-03 -4.4919475467768623e-02 0.0000000000000000e+00  7.4333855621948712e-03 -4.4919361183211728e-02 0.0000000000000000e+00  8.1465925301521976e-03 -4.5215719369153792e-02 0.0000000000000000e+00  8.1917478404637881e-03 -4.5506483309505241e-02 0.0000000000000000e+00  8.2750188337753008e-03 -4.5790907591009865e-02 0.0000000000000000e+00  8.4079725159603731e-03 -4.6079498706600025e-02 0.0000000000000000e+00  8.6019133569676352e-03 -4.6396947733297826e-02 0.0000000000000000e+00  8.8548145726605621e-03 -4.6778202848565140e-02 0.0000000000000000e+00  9.1554931292997573e-03 -4.7248799044909279e-02 0.0000000000000000e+00  9.4817785000171784e-03 -4.7822778523674947e-02 0.0000000000000000e+00  9.8167775539632872e-03 -4.8498031464422449e-02 0.0000000000000000e+00  1.0152661509954202e-02 -4.9265671824978291e-02 0.0000000000000000e+00  1.0496996876543811e-02 -5.0115288707622357e-02 0.0000000000000000e+00  1.0872600428557474e-02 -5.1043127825654525e-02 0.0000000000000000e+00  1.1312601494864714e-02 -5.2052103989578900e-02 0.0000000000000000e+00  1.1848539576360301e-02 -5.3146521189788652e-02 0.0000000000000000e+00  1.2495619183280715e-02 -5.4321899814721013e-02 0.0000000000000000e+00  1.4038302266111108e-02 -5.6763468031594932e-02 0.0000000000000000e+00  1.4842126830323007e-02 -5.7900899995900250e-02 0.0000000000000000e+00  1.5612020683448037e-02 -5.8915034609101628e-02 0.0000000000000000e+00  1.6318168594712648e-02 -5.9776480173672444e-02 0.0000000000000000e+00  1.6934771835258624e-02 -6.0476034669284987e-02 0.0000000000000000e+00  1.7446672442742034e-02 -6.1010187005881435e-02 0.0000000000000000e+00  1.7851535670604039e-02 -6.1367296586592457e-02 0.0000000000000000e+00  1.8162231030764434e-02 -6.1538157821208798e-02 0.0000000000000000e+00  1.8402588789251786e-02 -6.1520283290118924e-02 0.0000000000000000e+00  1.8599733415843898e-02 -6.1324809467104509e-02 0.0000000000000000e+00  1.8776534504604571e-02 -6.0979260706715381e-02 0.0000000000000000e+00  1.8945128034903849e-02 -6.0526917608674222e-02 0.0000000000000000e+00  1.9098612901892107e-02 -6.0011244163127996e-02 0.0000000000000000e+00  1.9223377527641129e-02 -5.9467864189252186e-02 0.0000000000000000e+00  1.9304335669327644e-02 -5.8914805275811069e-02 0.0000000000000000e+00  2.0639696366405558e-02 -5.8361309765591847e-02 0.0000000000000000e+00  2.0204494726294767e-02 -5.8360494469318923e-02 0.0000000000000000e+00  1.9768988851330611e-02 -5.8359674722327649e-02 0.0000000000000000e+00  2.1100274425921793e-02 -5.8915651746161035e-02 0.0000000000000000e+00  2.1182343698481595e-02 -5.9461427683859584e-02 0.0000000000000000e+00  2.1327487438308604e-02 -5.9995657694954505e-02 0.0000000000000000e+00  2.1547218511189556e-02 -6.0526337658621594e-02 0.0000000000000000e+00  2.1852893928200726e-02 -6.1076100255137232e-02 0.0000000000000000e+00  2.2242700943232961e-02 -6.1678155016200560e-02 0.0000000000000000e+00  2.2705999817012670e-02 -6.2356200651271787e-02 0.0000000000000000e+00  2.3222347342736906e-02 -6.3122373921795968e-02 0.0000000000000000e+00  2.3778410209584981e-02 -6.3973164329426124e-02 0.0000000000000000e+00  2.4371971501972674e-02 -6.4899891948841743e-02 0.0000000000000000e+00  2.5017355662306045e-02 -6.5895344049619470e-02 0.0000000000000000e+00  2.5743388975138230e-02 -6.6962113780265967e-02 0.0000000000000000e+00  2.6583787399862044e-02 -6.8114716840193212e-02 0.0000000000000000e+00  2.7557630897652723e-02 -6.9374512333587920e-02 0.0000000000000000e+00  2.8647542034113505e-02 -7.0754490420892657e-02 0.0000000000000000e+00  3.0846421164955944e-02 -7.3764997768319296e-02 0.0000000000000000e+00  3.1759777029696776e-02 -7.5251447982766381e-02 0.0000000000000000e+00  3.2488082450964503e-02 -7.6636725106132605e-02 0.0000000000000000e+00  3.3045969994902211e-02 -7.7876309312736106e-02 0.0000000000000000e+00  3.3470286108328959e-02 -7.8966022826204754e-02 0.0000000000000000e+00  3.3794410435900042e-02 -7.9924134650437115e-02 0.0000000000000000e+00  3.4042155897485979e-02 -8.0771567488321802e-02 0.0000000000000000e+00  3.4228221264735625e-02 -8.1529461941096129e-02 0.0000000000000000e+00  3.4360526334627182e-02 -8.2214053704453130e-02 0.0000000000000000e+00  3.4444878644421244e-02 -8.2835063233544587e-02 0.0000000000000000e+00  3.4485168293078350e-02 -8.3397240449898366e-02 0.0000000000000000e+00  3.4486259756623776e-02 -8.3898863353811373e-02 0.0000000000000000e+00  3.4457147854507778e-02 -8.4335690482599035e-02 0.0000000000000000e+00  3.4408465852879620e-02 -8.4702538488310192e-02 0.0000000000000000e+00  3.4363326093126458e-02 -8.5001511209029684e-02 0.0000000000000000e+00  3.2346805350116005e-02 -8.7225345320072561e-02 0.0000000000000000e+00  3.2577204562199230e-02 -8.6939169303215824e-02 0.0000000000000000e+00  3.2780352405815866e-02 -8.6654270850777662e-02 0.0000000000000000e+00  3.2952635150097442e-02 -8.6379769959730637e-02 0.0000000000000000e+00  3.3095639643407018e-02 -8.6124117865306909e-02 0.0000000000000000e+00  3.3214233987979715e-02 -8.5893856076812491e-02 0.0000000000000000e+00  3.3315375472846361e-02 -8.5694271751328877e-02 0.0000000000000000e+00  3.3407555452518493e-02 -8.5529538657414389e-02 0.0000000000000000e+00  3.3500598769255367e-02 -8.5402668217028258e-02 0.0000000000000000e+00  3.3605379746695661e-02 -8.5315045000650680e-02 0.0000000000000000e+00  3.3734140197020791e-02 -8.5266090158184898e-02 0.0000000000000000e+00  3.3898823330659390e-02 -8.5249713327415363e-02 0.0000000000000000e+00  3.4106641478706338e-02 -8.5254393075640506e-02 0.0000000000000000e+00  6.7928242766699232e-02 -1.8170184387715169e-01 0.0000000000000000e+00  6.7808966129733791e-02 -1.7944881070659577e-01 0.0000000000000000e+00  6.7680966109821356e-02 -1.7717409711480514e-01 0.0000000000000000e+00  6.7537945791447576e-02 -1.7486529423542532e-01 0.0000000000000000e+00  6.7371910366101559e-02 -1.7251779657570879e-01 0.0000000000000000e+00  6.7177494337156946e-02 -1.7013263813468521e-01 0.0000000000000000e+00  6.6951595791489057e-02 -1.6771378064469938e-01 0.0000000000000000e+00  6.6692655983595570e-02 -1.6526730451811203e-01 0.0000000000000000e+00  6.6401622465607074e-02 -1.6280024002041321e-01 0.0000000000000000e+00  6.6080643348033472e-02 -1.6031975901229523e-01 0.0000000000000000e+00  6.5732946950683463e-02 -1.5783265544517985e-01 0.0000000000000000e+00  6.5362160533815175e-02 -1.5534537010096544e-01 0.0000000000000000e+00  6.4972060023427466e-02 -1.5286379439495335e-01 0.0000000000000000e+00  6.4566001921754171e-02 -1.5039332998437296e-01 0.0000000000000000e+00  6.4146583678569083e-02 -1.4793918573175055e-01 0.0000000000000000e+00  6.3715377253685840e-02 -1.4550681365785789e-01 0.0000000000000000e+00  6.3273176383512320e-02 -1.4310204683557651e-01 0.0000000000000000e+00  6.2819278679427576e-02 -1.4073222872343508e-01 0.0000000000000000e+00  6.2352360061058203e-02 -1.3840594671779421e-01 0.0000000000000000e+00  6.1870209233598608e-02 -1.3613421846866985e-01 0.0000000000000000e+00  6.1370107561725382e-02 -1.3393149142337965e-01 0.0000000000000000e+00  6.0849028638689906e-02 -1.3181787572106460e-01 0.0000000000000000e+00  6.0303968894253032e-02 -1.2982763330737487e-01 0.0000000000000000e+00  5.9747389279255381e-02 -1.2802785929974467e-01 0.0000000000000000e+00  5.9201102380949597e-02 -1.2637866049612609e-01 0.0000000000000000e+00  5.8665079326970335e-02 -1.2483581564390971e-01 0.0000000000000000e+00  5.8137340087552176e-02 -1.2338159010686134e-01 0.0000000000000000e+00  5.7617298950110973e-02 -1.2200377849434349e-01 0.0000000000000000e+00  5.7104640569936846e-02 -1.2069346533127287e-01 0.0000000000000000e+00  5.6599986025755285e-02 -1.1944355840966567e-01 0.0000000000000000e+00  5.6104359888348693e-02 -1.1824784311408366e-01 0.0000000000000000e+00  5.5619354280612140e-02 -1.1710059677518724e-01 0.0000000000000000e+00  5.5146912987528093e-02 -1.1599623880713371e-01 0.0000000000000000e+00  5.4689012288081124e-02 -1.1492934115565656e-01 0.0000000000000000e+00  5.4247820014287809e-02 -1.1389422474344807e-01 0.0000000000000000e+00  5.3825152974486805e-02 -1.1288524662386518e-01 0.0000000000000000e+00  5.3422540683771079e-02 -1.1189686543855983e-01 0.0000000000000000e+0