<?xml version="1.0"?>
<VTKFile type="UnstructuredGrid"  version="0.1"  >
<UnstructuredGrid>
<Piece  NumberOfPoints="12853" NumberOfCells="23493">
<Points>
<DataArray  type="Float64"  NumberOfComponents="3"  format="ascii">-3.187178156719634e-14 1.7 0  0 0 0  1.3 3 0  -3.185690647650846e-14 4.300000000000001 0  -3.187178156719634e-14 4.699999999999999 0  1.3 6 0  -3.185690647650846e-14 7.300000000000001 0  -3.187178156719634e-14 7.699999999999999 0  1.3 9 0  -3.185690647650846e-14 10.3 0  -3.187178156719634e-14 10.7 0  1.3 12 0  -3.185690647650846e-14 13.3 0  -3.187178156719634e-14 13.7 0  1.3 15 0  -3.185690647650846e-14 16.3 0  0 18 0  18 18 0  17.99999999999997 16.3 0  17.99999999999997 13.7 0  17.99999999999997 13.3 0  17.99999999999997 10.7 0  17.99999999999997 10.3 0  17.99999999999997 7.7 0  17.99999999999997 7.3 0  17.99999999999997 4.7 0  17.99999999999997 4.3 0  17.99999999999997 1.7 0  18 0 0  4.3 3 0  7.3 3 0  10.3 3 0  4.3 6 0  7.3 6 0  10.3 6 0  13.3 3 0  16.3 3 0  13.3 6 0  16.3 6 0  4.3 9 0  4.3 12 0  7.3 9 0  10.3 9 0  7.3 12 0  10.3 12 0  4.3 15 0  7.3 15 0  10.3 15 0  13.3 9 0  13.3 12 0  16.3 9 0  16.3 12 0  13.3 15 0  16.3 15 0  0 1.578571428571429 0  0 1.457142857142856 0  0 1.335714285714285 0  0 1.214285714285712 0  0 1.092857142857142 0  0 0.9714285714285715 0  0 0.8499999999999979 0  0 0.7285714285714278 0  0 0.6071428571428577 0  0 0.485714285714284 0  0 0.3642857142857139 0  0 0.2428571428571438 0  0 0.1214285714285701 0  0.1274222824284281 1.706259855326144 0  0.2536174186209668 1.7249791354758 0  0.3773700804308007 1.755977563548128 0  0.497488462074617 1.798956607735327 0  0.6128157578737968 1.853502356347138 0  0.7222413029254824 1.919089504006691 0  0.8247112694127393 1.995086410628442 0  0.9192388155425116 2.080761184457488 0  1.004913589371558 2.17528873058726 0  1.080910495993309 2.277758697074517 0  1.146497643652861 2.387184242126203 0  1.201043392264673 2.502511537925383 0  1.244022436451871 2.622629919569199 0  1.275020864524199 2.746382581379033 0  1.293740144673856 2.872577717571571 0  1.293740144673856 3.127422282428428 0  1.2750208645242 3.253617418620966 0  1.244022436451872 3.3773700804308 0  1.201043392264673 3.497488462074616 0  1.146497643652862 3.612815757873796 0  1.08091049599331 3.722241302925481 0  1.00491358937156 3.824711269412738 0  0.9192388155425134 3.91923881554251 0  0.8247112694127412 4.004913589371556 0  0.7222413029254846 4.080910495993308 0  0.6128157578737984 4.146497643652861 0  0.4974884620746181 4.201043392264673 0  0.3773700804308024 4.244022436451871 0  0.2536174186209674 4.275020864524199 0  0.127422282428429 4.293740144673856 0  0 4.6 0  0 4.5 0  0 4.4 0  0.1274222824284281 4.706259855326143 0  0.2536174186209668 4.724979135475801 0  0.3773700804308007 4.755977563548129 0  0.497488462074617 4.798956607735327 0  0.6128157578737968 4.853502356347138 0  0.7222413029254824 4.919089504006691 0  0.8247112694127393 4.995086410628442 0  0.9192388155425116 5.080761184457488 0  1.004913589371558 5.17528873058726 0  1.080910495993309 5.277758697074518 0  1.146497643652861 5.387184242126203 0  1.201043392264673 5.502511537925383 0  1.244022436451871 5.622629919569198 0  1.275020864524199 5.746382581379033 0  1.293740144673856 5.872577717571572 0  1.293740144673856 6.127422282428428 0  1.2750208645242 6.253617418620967 0  1.244022436451872 6.377370080430801 0  1.201043392264673 6.497488462074616 0  1.146497643652862 6.612815757873795 0  1.08091049599331 6.722241302925481 0  1.00491358937156 6.824711269412737 0  0.9192388155425134 6.91923881554251 0  0.8247112694127412 7.004913589371556 0  0.7222413029254846 7.080910495993308 0  0.6128157578737984 7.146497643652861 0  0.4974884620746181 7.201043392264673 0  0.3773700804308024 7.244022436451871 0  0.2536174186209674 7.275020864524199 0  0.127422282428429 7.293740144673856 0  0 7.6 0  0 7.5 0  0 7.4 0  0.1274222824284281 7.706259855326143 0  0.2536174186209668 7.724979135475801 0  0.3773700804308007 7.755977563548129 0  0.497488462074617 7.798956607735327 0  0.6128157578737968 7.853502356347138 0  0.7222413029254824 7.919089504006691 0  0.8247112694127393 7.995086410628442 0  0.9192388155425116 8.080761184457488 0  1.004913589371558 8.17528873058726 0  1.080910495993309 8.277758697074518 0  1.146497643652861 8.387184242126203 0  1.201043392264673 8.502511537925383 0  1.244022436451871 8.622629919569199 0  1.275020864524199 8.746382581379033 0  1.293740144673856 8.872577717571572 0  1.293740144673856 9.127422282428428 0  1.2750208645242 9.253617418620966 0  1.244022436451872 9.377370080430801 0  1.201043392264673 9.497488462074616 0  1.146497643652862 9.612815757873795 0  1.08091049599331 9.722241302925481 0  1.00491358937156 9.824711269412738 0  0.9192388155425134 9.91923881554251 0  0.8247112694127412 10.00491358937156 0  0.7222413029254846 10.08091049599331 0  0.6128157578737984 10.14649764365286 0  0.4974884620746181 10.20104339226467 0  0.3773700804308024 10.24402243645187 0  0.2536174186209674 10.2750208645242 0  0.127422282428429 10.29374014467386 0  0 10.6 0  0 10.5 0  0 10.4 0  0.1274222824284281 10.70625985532614 0  0.2536174186209668 10.7249791354758 0  0.3773700804308007 10.75597756354813 0  0.497488462074617 10.79895660773533 0  0.6128157578737968 10.85350235634714 0  0.7222413029254824 10.91908950400669 0  0.8247112694127393 10.99508641062844 0  0.9192388155425116 11.08076118445749 0  1.004913589371558 11.17528873058726 0  1.080910495993309 11.27775869707452 0  1.146497643652861 11.3871842421262 0  1.201043392264673 11.50251153792538 0  1.244022436451871 11.6226299195692 0  1.275020864524199 11.74638258137903 0  1.293740144673856 11.87257771757157 0  1.293740144673856 12.12742228242843 0  1.2750208645242 12.25361741862097 0  1.244022436451872 12.3773700804308 0  1.201043392264673 12.49748846207462 0  1.146497643652862 12.6128157578738 0  1.08091049599331 12.72224130292548 0  1.00491358937156 12.82471126941274 0  0.9192388155425134 12.91923881554251 0  0.8247112694127412 13.00491358937156 0  0.7222413029254846 13.08091049599331 0  0.6128157578737984 13.14649764365286 0  0.4974884620746181 13.20104339226467 0  0.3773700804308024 13.24402243645187 0  0.2536174186209674 13.2750208645242 0  0.127422282428429 13.29374014467386 0  0 13.6 0  0 13.5 0  0 13.4 0  0.1274222824284281 13.70625985532614 0  0.2536174186209668 13.7249791354758 0  0.3773700804308007 13.75597756354813 0  0.497488462074617 13.79895660773533 0  0.6128157578737968 13.85350235634714 0  0.7222413029254824 13.91908950400669 0  0.8247112694127393 13.99508641062844 0  0.9192388155425116 14.08076118445749 0  1.004913589371558 14.17528873058726 0  1.080910495993309 14.27775869707452 0  1.146497643652861 14.3871842421262 0  1.201043392264673 14.50251153792538 0  1.244022436451871 14.6226299195692 0  1.275020864524199 14.74638258137903 0  1.293740144673856 14.87257771757157 0  1.293740144673856 15.12742228242843 0  1.2750208645242 15.25361741862097 0  1.244022436451872 15.3773700804308 0  1.201043392264673 15.49748846207462 0  1.146497643652862 15.6128157578738 0  1.08091049599331 15.72224130292548 0  1.00491358937156 15.82471126941274 0  0.9192388155425134 15.91923881554251 0  0.8247112694127412 16.00491358937156 0  0.7222413029254846 16.08091049599331 0  0.6128157578737984 16.14649764365286 0  0.4974884620746181 16.20104339226467 0  0.3773700804308024 16.24402243645187 0  0.2536174186209674 16.2750208645242 0  0.127422282428429 16.29374014467385 0  0 17.87857142857143 0  0 17.75714285714286 0  0 17.63571428571429 0  0 17.51428571428571 0  0 17.39285714285714 0  0 17.27142857142857 0  0 17.15 0  0 17.02857142857143 0  0 16.90714285714286 0  0 16.78571428571428 0  0 16.66428571428571 0  0 16.54285714285714 0  0 16.42142857142857 0  17.8705035971223 18 0  17.7410071942446 18 0  17.61151079136691 18 0  17.48201438848921 18 0  17.35251798561151 18 0  17.22302158273381 18 0  17.09352517985612 18 0  16.96402877697842 18 0  16.83453237410072 18 0  16.70503597122302 18 0  16.57553956834532 18 0  16.44604316546762 18 0  16.31654676258993 18 0  16.18705035971223 18 0  16.05755395683453 18 0  15.92805755395683 18 0  15.79856115107913 18 0  15.66906474820144 18 0  15.53956834532374 18 0  15.41007194244604 18 0  15.28057553956834 18 0  15.15107913669064 18 0  15.02158273381295 18 0  14.89208633093525 18 0  14.76258992805755 18 0  14.63309352517985 18 0  14.50359712230215 18 0  14.37410071942446 18 0  14.24460431654676 18 0  14.11510791366906 18 0  13.98561151079136 18 0  13.85611510791366 18 0  13.72661870503597 18 0  13.59712230215827 18 0  13.46762589928057 18 0  13.33812949640287 18 0  13.20863309352517 18 0  13.07913669064748 18 0  12.94964028776977 18 0  12.82014388489208 18 0  12.69064748201438 18 0  12.56115107913668 18 0  12.43165467625898 18 0  12.30215827338128 18 0  12.17266187050359 18 0  12.04316546762589 18 0  11.91366906474819 18 0  11.78417266187049 18 0  11.65467625899279 18 0  11.52517985611509 18 0  11.3956834532374 18 0  11.2661870503597 18 0  11.136690647482 18 0  11.0071942446043 18 0  10.8776978417266 18 0  10.7482014388489 18 0  10.6187050359712 18 0  10.48920863309351 18 0  10.35971223021581 18 0  10.23021582733811 18 0  10.10071942446041 18 0  9.971223021582714 18 0  9.841726618705016 18 0  9.712230215827317 18 0  9.582733812949618 18 0  9.453237410071921 18 0  9.323741007194224 18 0  9.194244604316525 18 0  9.064748201438828 18 0  8.935251798561131 18 0  8.805755395683434 18 0  8.676258992805735 18 0  8.546762589928038 18 0  8.417266187050341 18 0  8.287769784172642 18 0  8.158273381294947 18 0  8.028776978417248 18 0  7.899280575539549 18 0  7.769784172661854 18 0  7.640287769784155 18 0  7.510791366906458 18 0  7.381294964028761 18 0  7.251798561151062 18 0  7.122302158273365 18 0  6.992805755395668 18 0  6.86330935251797 18 0  6.733812949640273 18 0  6.604316546762576 18 0  6.474820143884878 18 0  6.34532374100718 18 0  6.215827338129483 18 0  6.086330935251786 18 0  5.956834532374087 18 0  5.827338129496392 18 0  5.697
[...]
<PointData  Vectors="f_21"> 
<DataArray  type="Float64"  Name="f_21"  NumberOfComponents="3" format="ascii">-3.9318331852770429e-03 -2.9321673172862015e-03 0.0000000000000000e+00  0.0000000000000000e+00 0.0000000000000000e+00 0.0000000000000000e+00  -6.6103798270944107e-03 -2.5765128656657674e-02 0.0000000000000000e+00  -8.8100515181581181e-03 -4.4454552507347769e-02 0.0000000000000000e+00  -8.5714347890367640e-03 -4.4454136105778835e-02 0.0000000000000000e+00  -3.6254628155625076e-03 -6.4113362654689005e-02 0.0000000000000000e+00  5.4424799729854857e-03 -7.5205828575163544e-02 0.0000000000000000e+00  8.2840079588747378e-03 -7.5215256940332001e-02 0.0000000000000000e+00  2.2163278773729936e-02 -1.0422747932676878e-01 0.0000000000000000e+00  3.4399115681577302e-02 -1.1581186203509679e-01 0.0000000000000000e+00  3.7626211832946357e-02 -1.1582416242342987e-01 0.0000000000000000e+00  5.4923285053002494e-02 -1.4619232128545190e-01 0.0000000000000000e+00  7.7124337126676532e-02 -1.4921275046047852e-01 0.0000000000000000e+00  8.3324993759222588e-02 -1.4926030986378647e-01 0.0000000000000000e+00  1.1275594507960127e-01 -1.9177157533579031e-01 0.0000000000000000e+00  1.2764117846509102e-01 -2.2739387329880106e-01 0.0000000000000000e+00  1.2261386191997657e-01 -2.3357639889092777e-01 0.0000000000000000e+00  2.2411441832042522e-01 -5.2572457656489646e-01 0.0000000000000000e+00  1.2576165393056937e-01 -5.1614946872009571e-01 0.0000000000000000e+00  1.0529901989432353e-01 -3.3138703250066615e-01 0.0000000000000000e+00  1.0575009195141605e-01 -3.3138708757848395e-01 0.0000000000000000e+00  8.2877064025246805e-02 -2.8455799563968970e-01 0.0000000000000000e+00  7.3743164346318169e-02 -2.8445533044078092e-01 0.0000000000000000e+00  4.9651101817877984e-02 -1.7520732344744241e-01 0.0000000000000000e+00  4.8037186796276686e-02 -1.7520525445249668e-01 0.0000000000000000e+00  3.1954806778831564e-02 -1.0545267703379743e-01 0.0000000000000000e+00  2.7775849514803296e-02 -1.0543209374354326e-01 0.0000000000000000e+00  6.9176758341927139e-03 -5.4522226924467289e-03 0.0000000000000000e+00  0.0000000000000000e+00 0.0000000000000000e+00 0.0000000000000000e+00  -3.6951697831807710e-03 -2.6531440879186574e-02 0.0000000000000000e+00  -9.7169717254218517e-04 -2.6782561841460193e-02 0.0000000000000000e+00  -8.9744491198911591e-04 -3.0052448810479859e-02 0.0000000000000000e+00  5.1528889180976201e-03 -6.7585566980133349e-02 0.0000000000000000e+00  8.2868057693216372e-03 -6.9990000166673991e-02 0.0000000000000000e+00  1.5623978467193265e-02 -7.9335466478237346e-02 0.0000000000000000e+00  2.5627795205839746e-03 -3.6400224535254454e-02 0.0000000000000000e+00  4.6799453869255337e-03 -4.8184304778710656e-02 0.0000000000000000e+00  1.5823269196717182e-02 -9.9398215165859380e-02 0.0000000000000000e+00  3.4135205361400002e-02 -1.2840456559470442e-01 0.0000000000000000e+00  2.6222620529862416e-02 -1.0977434783134418e-01 0.0000000000000000e+00  6.5291007003041759e-02 -1.5194183401900738e-01 0.0000000000000000e+00  3.4443024835937384e-02 -1.1295797781922240e-01 0.0000000000000000e+00  3.4713923676392644e-02 -1.2860491374915922e-01 0.0000000000000000e+00  6.5466359348507155e-02 -1.5521896917732200e-01 0.0000000000000000e+00  7.3858300924077316e-02 -1.7680425219663459e-01 0.0000000000000000e+00  1.1417465497806938e-01 -1.9428878285446932e-01 0.0000000000000000e+00  1.1959282842328819e-01 -1.9535227734737848e-01 0.0000000000000000e+00  1.1350478855597286e-01 -2.2205216347494436e-01 0.0000000000000000e+00  4.8614141522927562e-02 -1.5999457189897962e-01 0.0000000000000000e+00  6.5220297418421794e-02 -2.2103700322683961e-01 0.0000000000000000e+00  4.2345248533403636e-02 -2.0846736191430373e-01 0.0000000000000000e+00  9.7499556403522300e-02 -2.9067991927224907e-01 0.0000000000000000e+00  1.1884249126698938e-01 -2.7614849087667170e-01 0.0000000000000000e+00  7.9085689376396942e-02 -3.7866575357038190e-01 0.0000000000000000e+00  -4.0547822502867816e-03 -2.9389195866535603e-03 0.0000000000000000e+00  -4.1454406402930792e-03 -2.9641386342679778e-03 0.0000000000000000e+00  -4.1676831009345005e-03 -2.9851243513852490e-03 0.0000000000000000e+00  -4.1141824737711552e-03 -2.9834084777642842e-03 0.0000000000000000e+00  -3.9887344153430246e-03 -2.9463338974865380e-03 0.0000000000000000e+00  -3.7983515293277302e-03 -2.8682228568165792e-03 0.0000000000000000e+00  -3.5492415856927806e-03 -2.7471780620688924e-03 0.0000000000000000e+00  -3.2460832204829217e-03 -2.5818229740105498e-03 0.0000000000000000e+00  -2.8911628820786272e-03 -2.3705136539511800e-03 0.0000000000000000e+00  -2.4842796315028915e-03 -2.1094094025768248e-03 0.0000000000000000e+00  -2.0221849308617759e-03 -1.7907420117083169e-03 0.0000000000000000e+00  -1.4968549478540190e-03 -1.3976072028884800e-03 0.0000000000000000e+00  -8.7530097197086152e-04 -8.8974565260602830e-04 0.0000000000000000e+00  -3.9166343456772086e-03 -3.0567624451789907e-03 0.0000000000000000e+00  -3.8608921929038954e-03 -3.2273135178847909e-03 0.0000000000000000e+00  -3.7798664523542554e-03 -3.5106175723300047e-03 0.0000000000000000e+00  -3.7039913363114212e-03 -3.9466806651683060e-03 0.0000000000000000e+00  -3.6492129572148367e-03 -4.5545508370765314e-03 0.0000000000000000e+00  -3.6351664357125572e-03 -5.3478299194300374e-03 0.0000000000000000e+00  -3.6762093455198364e-03 -6.3336212032058525e-03 0.0000000000000000e+00  -3.7805026891648231e-03 -7.5198780712867905e-03 0.0000000000000000e+00  -3.9554813571201549e-03 -8.9158190948142400e-03 0.0000000000000000e+00  -4.2003693741169031e-03 -1.0536219190284066e-02 0.0000000000000000e+00  -4.5107103880649398e-03 -1.2402915876696218e-02 0.0000000000000000e+00  -4.8762336747605909e-03 -1.4540181637657955e-02 0.0000000000000000e+00  -5.2840361835912279e-03 -1.6974414042736342e-02 0.0000000000000000e+00  -5.7224973472739336e-03 -1.9703803390338854e-02 0.0000000000000000e+00  -6.1753235130135942e-03 -2.2666761939040533e-02 0.0000000000000000e+00  -6.9726655386744135e-03 -2.8821050949196597e-02 0.0000000000000000e+00  -7.2241564140696326e-03 -3.1696883918170209e-02 0.0000000000000000e+00  -7.3547876372170367e-03 -3.4315240330190573e-02 0.0000000000000000e+00  -7.3974409700855170e-03 -3.6646956330705083e-02 0.0000000000000000e+00  -7.4202714142433662e-03 -3.8698758715447437e-02 0.0000000000000000e+00  -7.4865100288091149e-03 -4.0473625620483275e-02 0.0000000000000000e+00  -7.6339739873659629e-03 -4.1956452773337101e-02 0.0000000000000000e+00  -7.8603063537188000e-03 -4.3123430116494381e-02 0.0000000000000000e+00  -8.1360335921924747e-03 -4.3958768302808787e-02 0.0000000000000000e+00  -8.4076361495546165e-03 -4.4472242787796157e-02 0.0000000000000000e+00  -8.6240200528480311e-03 -4.4711611129822686e-02 0.0000000000000000e+00  -8.7563967674274181e-03 -4.4758631605351373e-02 0.0000000000000000e+00  -8.8126812152726323e-03 -4.4703205236702494e-02 0.0000000000000000e+00  -8.8212110763636765e-03 -4.4618341107266958e-02 0.0000000000000000e+00  -8.8142226083436099e-03 -4.4533972508427576e-02 0.0000000000000000e+00  -8.6295169898973484e-03 -4.4454053228662999e-02 0.0000000000000000e+00  -8.6888096259228314e-03 -4.4454348786704692e-02 0.0000000000000000e+00  -8.7488173058951832e-03 -4.4454639574970457e-02 0.0000000000000000e+00  -8.5681189138601642e-03 -4.4526749007697083e-02 0.0000000000000000e+00  -8.5527919444319707e-03 -4.4592946247973386e-02 0.0000000000000000e+00  -8.5071436414362427e-03 -4.4655206221335168e-02 0.0000000000000000e+00  -8.4005808726187476e-03 -4.4744370950144545e-02 0.0000000000000000e+00  -8.2015573533154272e-03 -4.4927225727929128e-02 0.0000000000000000e+00  -7.9103324266563864e-03 -4.5297646638997692e-02 0.0000000000000000e+00  -7.5488982507861341e-03 -4.5928381123248915e-02 0.0000000000000000e+00  -7.1712360336821735e-03 -4.6867754804542479e-02 0.0000000000000000e+00  -6.8253706587167963e-03 -4.8120305076293980e-02 0.0000000000000000e+00  -6.5388126231344769e-03 -4.9666578035085909e-02 0.0000000000000000e+00  -6.3040722767727722e-03 -5.1480443665982367e-02 0.0000000000000000e+00  -6.0702171973013707e-03 -5.3539863840921742e-02 0.0000000000000000e+00  -5.7586235995916290e-03 -5.5849021347744589e-02 0.0000000000000000e+00  -5.2770777628783436e-03 -5.8403826438986284e-02 0.0000000000000000e+00  -4.5670151386977397e-03 -6.1187050259317519e-02 0.0000000000000000e+00  -2.5066454786953560e-03 -6.7048200781876316e-02 0.0000000000000000e+00  -1.2992657338076533e-03 -6.9828905066635014e-02 0.0000000000000000e+00  -8.6195581875081332e-05 -7.2347889296340936e-02 0.0000000000000000e+00  1.0556287421591400e-03 -7.4537724704292013e-02 0.0000000000000000e+00  2.0601241883748058e-03 -7.6387655587665124e-02 0.0000000000000000e+00  2.8766058275119283e-03 -7.7880920264503925e-02 0.0000000000000000e+00  3.4880749383024890e-03 -7.8993381823279432e-02 0.0000000000000000e+00  3.9170481722162268e-03 -7.9700663857083159e-02 0.0000000000000000e+00  4.2081690395796081e-03 -7.9991017483597160e-02 0.0000000000000000e+00  4.4265228805063332e-03 -7.9882422712422546e-02 0.0000000000000000e+00  4.6292745832402105e-03 -7.9434477607377457e-02 0.0000000000000000e+00  4.8465561837547286e-03 -7.8742347059886433e-02 0.0000000000000000e+00  5.0682870183121273e-03 -7.7909059260564018e-02 0.0000000000000000e+00  5.2628141937234810e-03 -7.7019797870557974e-02 0.0000000000000000e+00  5.3943736759652422e-03 -7.6114388984082959e-02 0.0000000000000000e+00  7.5752093210933336e-03 -7.5212687150493895e-02 0.0000000000000000e+00  6.8651612322985179e-03 -7.5210560025384399e-02 0.0000000000000000e+00  6.1544512858115567e-03 -7.5208423478485442e-02 0.0000000000000000e+00  8.3249050705613767e-03 -7.6117068208916464e-02 0.0000000000000000e+00  8.4593934046315010e-03 -7.7004668174656080e-02 0.0000000000000000e+00  8.7055351404279873e-03 -7.7873484655414299e-02 0.0000000000000000e+00  9.0925809867757144e-03 -7.8749090925081144e-02 0.0000000000000000e+00  9.6487985739249198e-03 -7.9694117745467002e-02 0.0000000000000000e+00  1.0367728503459059e-02 -8.0797190686492104e-02 0.0000000000000000e+00  1.1220831264379198e-02 -8.2122686284465729e-02 0.0000000000000000e+00  1.2149623917339853e-02 -8.3708259165398535e-02 0.0000000000000000e+00  1.3106212318245488e-02 -8.5548609792155034e-02 0.0000000000000000e+00  1.4067103619162340e-02 -8.7618549808526708e-02 0.0000000000000000e+00  1.5045416063824191e-02 -8.9891904239896236e-02 0.0000000000000000e+00  1.6094007261855912e-02 -9.2354524370039548e-02 0.0000000000000000e+00  1.7287017858612249e-02 -9.5020706300943517e-02 0.0000000000000000e+00  1.8695080475286712e-02 -9.7902577145663749e-02 0.0000000000000000e+00  2.0339516559787944e-02 -1.0099650787497043e-01 0.0000000000000000e+00  2.4050053382944126e-02 -1.0745866544739052e-01 0.0000000000000000e+00  2.5873598288450012e-02 -1.1050201618851356e-01 0.0000000000000000e+00  2.7555424549890788e-02 -1.1324891348870506e-01 0.0000000000000000e+00  2.9045314870194260e-02 -1.1562405678602355e-01 0.0000000000000000e+00  3.0300016986858195e-02 -1.1760698230330130e-01 0.0000000000000000e+00  3.1296166138328751e-02 -1.1919269723760079e-01 0.0000000000000000e+00  3.2036251839037605e-02 -1.2035468123826074e-01 0.0000000000000000e+00  3.2556426051392785e-02 -1.2107012554356776e-01 0.0000000000000000e+00  3.2919046498305106e-02 -1.2133054054862163e-01 0.0000000000000000e+00  3.3195380307624228e-02 -1.2115992629706442e-01 0.0000000000000000e+00  3.3447237460505888e-02 -1.2062340720328002e-01 0.0000000000000000e+00  3.3710055134366555e-02 -1.1982734253659766e-01 0.0000000000000000e+00  3.3969736020775375e-02 -1.1888000652096990e-01 0.0000000000000000e+00  3.4193683437134394e-02 -1.1787069513919329e-01 0.0000000000000000e+00  3.4344034427111980e-02 -1.1684334992105638e-01 0.0000000000000000e+00  3.6821083810421512e-02 -1.1582086435672447e-01 0.0000000000000000e+00  3.6014653975275410e-02 -1.1581803431905667e-01 0.0000000000000000e+00  3.5207536503603649e-02 -1.1581519039723168e-01 0.0000000000000000e+00  3.7672205786066178e-02 -1.1684869692240903e-01 0.0000000000000000e+00  3.7824069045853830e-02 -1.1785771503949816e-01 0.0000000000000000e+00  3.8100431086446784e-02 -1.1884565722661569e-01 0.0000000000000000e+00  3.8531606289997564e-02 -1.1983854660073101e-01 0.0000000000000000e+00  3.9146743647732962e-02 -1.2090034219190612e-01 0.0000000000000000e+00  3.9939081998571171e-02 -1.2212180834202392e-01 0.0000000000000000e+00  4.0877749977718265e-02 -1.2356773673772453e-01 0.0000000000000000e+00  4.1904152977822767e-02 -1.2527106078030817e-01 0.0000000000000000e+00  4.2976197862375394e-02 -1.2722118540940169e-01 0.0000000000000000e+00  4.4079055829231488e-02 -1.2938937537851389e-01 0.0000000000000000e+00  4.5242769134094078e-02 -1.3174364904151714e-01 0.0000000000000000e+00  4.6542398159250042e-02 -1.3427041176991339e-01 0.0000000000000000e+00  4.8085904262551070e-02 -1.3697601850172986e-01 0.0000000000000000e+00  4.9978746450926141e-02 -1.3987790603334291e-01 0.0000000000000000e+00  5.2274875242496195e-02 -1.4297215681239103e-01 0.0000000000000000e+00  5.7771275640730632e-02 -1.4940238270150993e-01 0.0000000000000000e+00  6.0624643466125887e-02 -1.5240133911366699e-01 0.0000000000000000e+00  6.3339735604855341e-02 -1.5506115649522431e-01 0.0000000000000000e+00  6.5817929236306388e-02 -1.5728518862875746e-01 0.0000000000000000e+00  6.7987307648513018e-02 -1.5903502276851603e-01 0.0000000000000000e+00  6.9813453460196490e-02 -1.6029313890264080e-01 0.0000000000000000e+00  7.1299196442999285e-02 -1.6102231449254237e-01 0.0000000000000000e+00  7.2488293177919758e-02 -1.6119742521770095e-01 0.0000000000000000e+00  7.3451787001231367e-02 -1.6081553958070452e-01 0.0000000000000000e+00  7.4265930116135345e-02 -1.5991387962335360e-01 0.0000000000000000e+00  7.4991962331534379e-02 -1.5857523177321897e-01 0.0000000000000000e+00  7.5659438421853159e-02 -1.5692428639792347e-01 0.0000000000000000e+00  7.6245689468424402e-02 -1.5508419974159787e-01 0.0000000000000000e+00  7.6710607952677354e-02 -1.5315562361636664e-01 0.0000000000000000e+00  7.7011455366232384e-02 -1.5119113379977744e-01 0.0000000000000000e+00  8.1776645573606283e-02 -1.4924824522915869e-01 0.0000000000000000e+00  8.0226907463964825e-02 -1.4923657107589405e-01 0.0000000000000000e+00  7.8676315734077851e-02 -1.4922487519164898e-01 0.0000000000000000e+00  8.3406319840831120e-02 -1.5123243021208821e-01 0.0000000000000000e+00  8.3686162964867000e-02 -1.5318062645077038e-01 0.0000000000000000e+00  8.4182558691156428e-02 -1.5508971757955362e-01 0.0000000000000000e+00  8.4925378470451882e-02 -1.5697694876028004e-01 0.0000000000000000e+00  8.5943295541751008e-02 -1.5889915732558499e-01 0.0000000000000000e+00  8.7229074559059275e-02 -1.6094100686420287e-01 0.0000000000000000e+00  8.8752270898368180e-02 -1.6316073128278108e-01 0.0000000000000000e+00  9.0458267019535674e-02 -1.6558442233880497e-01 0.0000000000000000e+00  9.2314756033074208e-02 -1.6819649317448723e-01 0.0000000000000000e+00  9.4322898969371530e-02 -1.7096902375251041e-01 0.0000000000000000e+00  9.6531504508673982e-02 -1.7388156212155947e-01 0.0000000000000000e+00  9.9030183078216913e-02 -1.7694379211055097e-01 0.0000000000000000e+00  1.0191998257480621e-01 -1.8020426322731167e-01 0.0000000000000000e+00  1.0525092405987121e-01 -1.8374035107560199e-01 0.0000000000000000e+00  1.0895138391049941e-01 -1.8760624231740350e-01 0.0000000000000000e+00  1.1629888134133184e-01 -1.9609102964862907e-01 0.0000000000000000e+00  1.1928145464177572e-01 -2.0029220038124004e-01 0.0000000000000000e+00  1.2161792910109276e-01 -2.0420002769127629e-01 0.0000000000000000e+00  1.2337867746989814e-01 -2.0767633980989356e-01 0.0000000000000000e+00  1.2470192621483046e-01 -2.1070790148125099e-01 0.0000000000000000e+00  1.2570665375216433e-01 -2.1334967821867273e-01 0.0000000000000000e+00  1.2647560267877875e-01 -2.1566434385820657e-01 0.0000000000000000e+00  1.2705874459738414e-01 -2.1771497729926401e-01 0.0000000000000000e+00  1.2748276400648409e-01 -2.1955023702093254e-01 0.0000000000000000e+00  1.2776622599948895e-01 -2.2119976639695155e-01 0.0000000000000000e+00  1.2792071492259752e-01 -2.2267896846899310e-01 0.0000000000000000e+00  1.2795998415495952e-01 -2.2398496658870048e-01 0.0000000000000000e+00  1.2790871426928027e-01 -2.2510774668408104e-01 0.0000000000000000e+00  1.2779580493412954e-01 -2.2603451209541989e-01 0.0000000000000000e+00  1.2768471106628640e-01 -2.2677251994872771e-01 0.0000000000000000e+00  1.2321474525685000e-01 -2.3280460579295320e-01 0.0000000000000000e+00  1.2376886192399175e-01 -2.3201603950345595e-01 0.0000000000000000e+00  1.2424577876500555e-01 -2.3123123358264344e-01 0.0000000000000000e+00  1.2463654441620781e-01 -2.3047537899709741e-01 0.0000000000000000e+00  1.2494607140955385e-01 -2.2977177293633311e-01 0.0000000000000000e+00  1.2518813875382004e-01 -2.2913839755811052e-01 0.0000000000000000e+00  1.2538218850769331e-01 -2.2858976468974027e-01 0.0000000000000000e+00  1.2555183324886948e-01 -2.2813730499554852e-01 0.0000000000000000e+00  1.2572432273686648e-01 -2.2778921386816134e-01 0.0000000000000000e+00  1.2592974903577886e-01 -2.2754919266929738e-01 0.0000000000000000e+00  1.2620191644689205e-01 -2.2741544185139365e-01 0.0000000000000000e+00  1.2657364776739272e-01 -2.2737092615053967e-01 0.0000000000000000e+00  1.2706449755700033e-01 -2.2738369524494209e-01 0.0000000000000000e+00  2.2392249986704399e-01 -5.1839231670672581e-01 0.0000000000000000e+00  2.2369832488255839e-01 -5.1114904336152911e-01 0.0000000000000000e+00  2.2344848923184976e-01 -5.0387671719265814e-01 0.0000000000000000e+00  2.2315326507298780e-01 -4.9652691266695875e-01 0.0000000000000000e+00  2.2278713774645384e-01 -4.8908067312355868e-01 0.0000000000000000e+00  2.2233167501630188e-01 -4.8153871141778037e-01 0.0000000000000000e+00  2.2177510158087954e-01 -4.7391178060595152e-01 0.0000000000000000e+00  2.2110990165304753e-01 -4.6621801808992475e-01 0.0000000000000000e+00  2.2033620276367805e-01 -4.5847928235034985e-01 0.0000000000000000e+00  2.1945794793508933e-01 -4.5071859056993013e-01 0.0000000000000000e+00  2.1848273510560853e-01 -4.4295836461327159e-01 0.0000000000000000e+00  2.1741988270205334e-01 -4.3522051303910997e-01 0.0000000000000000e+00  2.1627986302457078e-01 -4.2752557908357230e-01 0.0000000000000000e+00  2.1507270487187888e-01 -4.1989273101188213e-01 0.0000000000000000e+00  2.1380693530147457e-01 -4.1234039039200249e-01 0.0000000000000000e+00  2.1248910568271706e-01 -4.0488738286139453e-01 0.0000000000000000e+00  2.1112358117506788e-01 -3.9755292140715703e-01 0.0000000000000000e+00  2.0971192048965492e-01 -3.9035989115544528e-01 0.0000000000000000e+00  2.0825354872696061e-01 -3.8333382061024029e-01 0.0000000000000000e+00  2.0674600931434023e-01 -3.7650597376026756e-01 0.0000000000000000e+00  2.0518550573820546e-01 -3.6991617461029191e-01 0.0000000000000000e+00  2.0356735134231529e-01 -3.6361885272141242e-01 0.0000000000000000e+00  2.0188680548777144e-01 -3.5770609481058890e-01 0.0000000000000000e+00  2.0018005881105255e-01 -3.5235899030873696e-01 0.0000000000000000e+00  1.9850813945647330e-01 -3.4746572904373874e-01 0.0000000000000000e+00  1.9687267952757698e-01 -3.4290225600646085e-01 0.0000000000000000e+00  1.9526974761164639e-01 -3.3861653495552663e-01 0.0000000000000000e+00  1.9369863458069136e-01 -3.3457138818348836e-01 0.0000000000000000e+00  1.9215871957488459e-01 -3.3073860416370832e-01 0.0000000000000000e+00  1.9065166560125454e-01 -3.2709522032404592e-01 0.0000000000000000e+00  1.8917969754645192e-01 -3.2362091571720308e-01 0.0000000000000000e+00  1.8774640553755725e-01 -3.2029714708826446e-01 0.0000000000000000e+00  1.8635602267975585e-01 -3.1710616633852234e-01 0.0000000000000000e+00  1.8501305950223429e-01 -3.1403121831333181e-01 0.0000000000000000e+00  1.8372233614067715e-01 -3.1105521791241658e-01 0.0000000000000000e+00  1.8248777168228283e-01 -3.0816160893118194e-01 0.0000000000000000e+00  1.8131286305473726e-01 -3.0533447550389825e-01 0.0000000000000000e+00  1.80198984718