<?xml version="1.0"?>
<VTKFile type="UnstructuredGrid"  version="0.1"  >
<UnstructuredGrid>
<Piece  NumberOfPoints="12853" NumberOfCells="23493">
<Points>
<DataArray  type="Float64"  NumberOfComponents="3"  format="ascii">-3.187178156719634e-14 1.7 0  0 0 0  1.3 3 0  -3.185690647650846e-14 4.300000000000001 0  -3.187178156719634e-14 4.699999999999999 0  1.3 6 0  -3.185690647650846e-14 7.300000000000001 0  -3.187178156719634e-14 7.699999999999999 0  1.3 9 0  -3.185690647650846e-14 10.3 0  -3.187178156719634e-14 10.7 0  1.3 12 0  -3.185690647650846e-14 13.3 0  -3.187178156719634e-14 13.7 0  1.3 15 0  -3.185690647650846e-14 16.3 0  0 18 0  18 18 0  17.99999999999997 16.3 0  17.99999999999997 13.7 0  17.99999999999997 13.3 0  17.99999999999997 10.7 0  17.99999999999997 10.3 0  17.99999999999997 7.7 0  17.99999999999997 7.3 0  17.99999999999997 4.7 0  17.99999999999997 4.3 0  17.99999999999997 1.7 0  18 0 0  4.3 3 0  7.3 3 0  10.3 3 0  4.3 6 0  7.3 6 0  10.3 6 0  13.3 3 0  16.3 3 0  13.3 6 0  16.3 6 0  4.3 9 0  4.3 12 0  7.3 9 0  10.3 9 0  7.3 12 0  10.3 12 0  4.3 15 0  7.3 15 0  10.3 15 0  13.3 9 0  13.3 12 0  16.3 9 0  16.3 12 0  13.3 15 0  16.3 15 0  0 1.578571428571429 0  0 1.457142857142856 0  0 1.335714285714285 0  0 1.214285714285712 0  0 1.092857142857142 0  0 0.9714285714285715 0  0 0.8499999999999979 0  0 0.7285714285714278 0  0 0.6071428571428577 0  0 0.485714285714284 0  0 0.3642857142857139 0  0 0.2428571428571438 0  0 0.1214285714285701 0  0.1274222824284281 1.706259855326144 0  0.2536174186209668 1.7249791354758 0  0.3773700804308007 1.755977563548128 0  0.497488462074617 1.798956607735327 0  0.6128157578737968 1.853502356347138 0  0.7222413029254824 1.919089504006691 0  0.8247112694127393 1.995086410628442 0  0.9192388155425116 2.080761184457488 0  1.004913589371558 2.17528873058726 0  1.080910495993309 2.277758697074517 0  1.146497643652861 2.387184242126203 0  1.201043392264673 2.502511537925383 0  1.244022436451871 2.622629919569199 0  1.275020864524199 2.746382581379033 0  1.293740144673856 2.872577717571571 0  1.293740144673856 3.127422282428428 0  1.2750208645242 3.253617418620966 0  1.244022436451872 3.3773700804308 0  1.201043392264673 3.497488462074616 0  1.146497643652862 3.612815757873796 0  1.08091049599331 3.722241302925481 0  1.00491358937156 3.824711269412738 0  0.9192388155425134 3.91923881554251 0  0.8247112694127412 4.004913589371556 0  0.7222413029254846 4.080910495993308 0  0.6128157578737984 4.146497643652861 0  0.4974884620746181 4.201043392264673 0  0.3773700804308024 4.244022436451871 0  0.2536174186209674 4.275020864524199 0  0.127422282428429 4.293740144673856 0  0 4.6 0  0 4.5 0  0 4.4 0  0.1274222824284281 4.706259855326143 0  0.2536174186209668 4.724979135475801 0  0.3773700804308007 4.755977563548129 0  0.497488462074617 4.798956607735327 0  0.6128157578737968 4.853502356347138 0  0.7222413029254824 4.919089504006691 0  0.8247112694127393 4.995086410628442 0  0.9192388155425116 5.080761184457488 0  1.004913589371558 5.17528873058726 0  1.080910495993309 5.277758697074518 0  1.146497643652861 5.387184242126203 0  1.201043392264673 5.502511537925383 0  1.244022436451871 5.622629919569198 0  1.275020864524199 5.746382581379033 0  1.293740144673856 5.872577717571572 0  1.293740144673856 6.127422282428428 0  1.2750208645242 6.253617418620967 0  1.244022436451872 6.377370080430801 0  1.201043392264673 6.497488462074616 0  1.146497643652862 6.612815757873795 0  1.08091049599331 6.722241302925481 0  1.00491358937156 6.824711269412737 0  0.9192388155425134 6.91923881554251 0  0.8247112694127412 7.004913589371556 0  0.7222413029254846 7.080910495993308 0  0.6128157578737984 7.146497643652861 0  0.4974884620746181 7.201043392264673 0  0.3773700804308024 7.244022436451871 0  0.2536174186209674 7.275020864524199 0  0.127422282428429 7.293740144673856 0  0 7.6 0  0 7.5 0  0 7.4 0  0.1274222824284281 7.706259855326143 0  0.2536174186209668 7.724979135475801 0  0.3773700804308007 7.755977563548129 0  0.497488462074617 7.798956607735327 0  0.6128157578737968 7.853502356347138 0  0.7222413029254824 7.919089504006691 0  0.8247112694127393 7.995086410628442 0  0.9192388155425116 8.080761184457488 0  1.004913589371558 8.17528873058726 0  1.080910495993309 8.277758697074518 0  1.146497643652861 8.387184242126203 0  1.201043392264673 8.502511537925383 0  1.244022436451871 8.622629919569199 0  1.275020864524199 8.746382581379033 0  1.293740144673856 8.872577717571572 0  1.293740144673856 9.127422282428428 0  1.2750208645242 9.253617418620966 0  1.244022436451872 9.377370080430801 0  1.201043392264673 9.497488462074616 0  1.146497643652862 9.612815757873795 0  1.08091049599331 9.722241302925481 0  1.00491358937156 9.824711269412738 0  0.9192388155425134 9.91923881554251 0  0.8247112694127412 10.00491358937156 0  0.7222413029254846 10.08091049599331 0  0.6128157578737984 10.14649764365286 0  0.4974884620746181 10.20104339226467 0  0.3773700804308024 10.24402243645187 0  0.2536174186209674 10.2750208645242 0  0.127422282428429 10.29374014467386 0  0 10.6 0  0 10.5 0  0 10.4 0  0.1274222824284281 10.70625985532614 0  0.2536174186209668 10.7249791354758 0  0.3773700804308007 10.75597756354813 0  0.497488462074617 10.79895660773533 0  0.6128157578737968 10.85350235634714 0  0.7222413029254824 10.91908950400669 0  0.8247112694127393 10.99508641062844 0  0.9192388155425116 11.08076118445749 0  1.004913589371558 11.17528873058726 0  1.080910495993309 11.27775869707452 0  1.146497643652861 11.3871842421262 0  1.201043392264673 11.50251153792538 0  1.244022436451871 11.6226299195692 0  1.275020864524199 11.74638258137903 0  1.293740144673856 11.87257771757157 0  1.293740144673856 12.12742228242843 0  1.2750208645242 12.25361741862097 0  1.244022436451872 12.3773700804308 0  1.201043392264673 12.49748846207462 0  1.146497643652862 12.6128157578738 0  1.08091049599331 12.72224130292548 0  1.00491358937156 12.82471126941274 0  0.9192388155425134 12.91923881554251 0  0.8247112694127412 13.00491358937156 0  0.7222413029254846 13.08091049599331 0  0.6128157578737984 13.14649764365286 0  0.4974884620746181 13.20104339226467 0  0.3773700804308024 13.24402243645187 0  0.2536174186209674 13.2750208645242 0  0.127422282428429 13.29374014467386 0  0 13.6 0  0 13.5 0  0 13.4 0  0.1274222824284281 13.70625985532614 0  0.2536174186209668 13.7249791354758 0  0.3773700804308007 13.75597756354813 0  0.497488462074617 13.79895660773533 0  0.6128157578737968 13.85350235634714 0  0.7222413029254824 13.91908950400669 0  0.8247112694127393 13.99508641062844 0  0.9192388155425116 14.08076118445749 0  1.004913589371558 14.17528873058726 0  1.080910495993309 14.27775869707452 0  1.146497643652861 14.3871842421262 0  1.201043392264673 14.50251153792538 0  1.244022436451871 14.6226299195692 0  1.275020864524199 14.74638258137903 0  1.293740144673856 14.87257771757157 0  1.293740144673856 15.12742228242843 0  1.2750208645242 15.25361741862097 0  1.244022436451872 15.3773700804308 0  1.201043392264673 15.49748846207462 0  1.146497643652862 15.6128157578738 0  1.08091049599331 15.72224130292548 0  1.00491358937156 15.82471126941274 0  0.9192388155425134 15.91923881554251 0  0.8247112694127412 16.00491358937156 0  0.7222413029254846 16.08091049599331 0  0.6128157578737984 16.14649764365286 0  0.4974884620746181 16.20104339226467 0  0.3773700804308024 16.24402243645187 0  0.2536174186209674 16.2750208645242 0  0.127422282428429 16.29374014467385 0  0 17.87857142857143 0  0 17.75714285714286 0  0 17.63571428571429 0  0 17.51428571428571 0  0 17.39285714285714 0  0 17.27142857142857 0  0 17.15 0  0 17.02857142857143 0  0 16.90714285714286 0  0 16.78571428571428 0  0 16.66428571428571 0  0 16.54285714285714 0  0 16.42142857142857 0  17.8705035971223 18 0  17.7410071942446 18 0  17.61151079136691 18 0  17.48201438848921 18 0  17.35251798561151 18 0  17.22302158273381 18 0  17.09352517985612 18 0  16.96402877697842 18 0  16.83453237410072 18 0  16.70503597122302 18 0  16.57553956834532 18 0  16.44604316546762 18 0  16.31654676258993 18 0  16.18705035971223 18 0  16.05755395683453 18 0  15.92805755395683 18 0  15.79856115107913 18 0  15.66906474820144 18 0  15.53956834532374 18 0  15.41007194244604 18 0  15.28057553956834 18 0  15.15107913669064 18 0  15.02158273381295 18 0  14.89208633093525 18 0  14.76258992805755 18 0  14.63309352517985 18 0  14.50359712230215 18 0  14.37410071942446 18 0  14.24460431654676 18 0  14.11510791366906 18 0  13.98561151079136 18 0  13.85611510791366 18 0  13.72661870503597 18 0  13.59712230215827 18 0  13.46762589928057 18 0  13.33812949640287 18 0  13.20863309352517 18 0  13.07913669064748 18 0  12.94964028776977 18 0  12.82014388489208 18 0  12.69064748201438 18 0  12.56115107913668 18 0  12.43165467625898 18 0  12.30215827338128 18 0  12.17266187050359 18 0  12.04316546762589 18 0  11.91366906474819 18 0  11.78417266187049 18 0  11.65467625899279 18 0  11.52517985611509 18 0  11.3956834532374 18 0  11.2661870503597 18 0  11.136690647482 18 0  11.0071942446043 18 0  10.8776978417266 18 0  10.7482014388489 18 0  10.6187050359712 18 0  10.48920863309351 18 0  10.35971223021581 18 0  10.23021582733811 18 0  10.10071942446041 18 0  9.971223021582714 18 0  9.841726618705016 18 0  9.712230215827317 18 0  9.582733812949618 18 0  9.453237410071921 18 0  9.323741007194224 18 0  9.194244604316525 18 0  9.064748201438828 18 0  8.935251798561131 18 0  8.805755395683434 18 0  8.676258992805735 18 0  8.546762589928038 18 0  8.417266187050341 18 0  8.287769784172642 18 0  8.158273381294947 18 0  8.028776978417248 18 0  7.899280575539549 18 0  7.769784172661854 18 0  7.640287769784155 18 0  7.510791366906458 18 0  7.381294964028761 18 0  7.251798561151062 18 0  7.122302158273365 18 0  6.992805755395668 18 0  6.86330935251797 18 0  6.733812949640273 18 0  6.604316546762576 18 0  6.474820143884878 18 0  6.34532374100718 18 0  6.215827338129483 18 0  6.086330935251786 18 0  5.956834532374087 18 0  5.827338129496392 18 0  5.697
[...]
<PointData  Vectors="f_21"> 
<DataArray  type="Float64"  Name="f_21"  NumberOfComponents="3" format="ascii">-1.5941873623819850e-03 -1.1922569142747553e-03 0.0000000000000000e+00  0.0000000000000000e+00 0.0000000000000000e+00 0.0000000000000000e+00  -2.8728585072055716e-03 -1.0483026346045574e-02 0.0000000000000000e+00  -4.2319832292490788e-03 -1.8431251547759174e-02 0.0000000000000000e+00  -4.2559042669770035e-03 -1.8431048686991195e-02 0.0000000000000000e+00  -2.9103027559756610e-03 -2.6091383248127063e-02 0.0000000000000000e+00  -5.8630691244469248e-04 -3.1741516605436802e-02 0.0000000000000000e+00  1.8644158632164640e-04 -3.1741979613717178e-02 0.0000000000000000e+00  4.2282719789956584e-03 -4.2249847583835015e-02 0.0000000000000000e+00  7.7957500117324758e-03 -4.7640288264159343e-02 0.0000000000000000e+00  8.7941088267662025e-03 -4.7641240784555179e-02 0.0000000000000000e+00  1.4254223888662321e-02 -5.8943296381854422e-02 0.0000000000000000e+00  2.0785329143778418e-02 -6.1881100810921887e-02 0.0000000000000000e+00  2.2650366503607022e-02 -6.1885232045698603e-02 0.0000000000000000e+00  3.1958658732925131e-02 -7.6669634952622634e-02 0.0000000000000000e+00  3.6836742827772932e-02 -9.0504990954256126e-02 0.0000000000000000e+00  3.4462932793681116e-02 -9.2892889662903669e-02 0.0000000000000000e+00  7.2680052319697847e-02 -1.9566344524570586e-01 0.0000000000000000e+00  3.9405123545932022e-02 -1.9287801321660919e-01 0.0000000000000000e+00  3.2348616224522529e-02 -1.2799283028651429e-01 0.0000000000000000e+00  3.1990622179920054e-02 -1.2799285153470696e-01 0.0000000000000000e+00  2.5879293916190177e-02 -1.0336724513128934e-01 0.0000000000000000e+00  2.3624823071390726e-02 -1.0336152160998349e-01 0.0000000000000000e+00  1.6836243597190124e-02 -6.7390973578248234e-02 0.0000000000000000e+00  1.5962854133593989e-02 -6.7390550952832320e-02 0.0000000000000000e+00  1.0938299878438596e-02 -3.8258089318414526e-02 0.0000000000000000e+00  9.7895680119495666e-03 -3.8256911153065107e-02 0.0000000000000000e+00  2.6737731167077970e-03 -2.0965520243939255e-03 0.0000000000000000e+00  0.0000000000000000e+00 0.0000000000000000e+00 0.0000000000000000e+00  -1.6709848641117903e-03 -1.0554670828927965e-02 0.0000000000000000e+00  -8.0065566417283907e-04 -1.0667243162359397e-02 0.0000000000000000e+00  -4.8830982741163902e-04 -1.1863887087614997e-02 0.0000000000000000e+00  1.0502190642301923e-04 -2.6953016667844904e-02 0.0000000000000000e+00  1.7402544218847152e-03 -2.7771213374093717e-02 0.0000000000000000e+00  3.8950041796951339e-03 -3.1358941088520983e-02 0.0000000000000000e+00  4.4260965453083860e-04 -1.4302075769968836e-02 0.0000000000000000e+00  2.1159811108480420e-03 -1.8283760877831297e-02 0.0000000000000000e+00  5.3800733615341108e-03 -3.8633155776578540e-02 0.0000000000000000e+00  1.0284685881277235e-02 -4.8768647332196775e-02 0.0000000000000000e+00  6.2832886954258893e-03 -4.3694190812869765e-02 0.0000000000000000e+00  1.7601582537481082e-02 -6.0346856112482347e-02 0.0000000000000000e+00  8.8507822367174058e-03 -4.4819532230413087e-02 0.0000000000000000e+00  1.0031456610715453e-02 -5.0790873738240323e-02 0.0000000000000000e+00  1.8374242030530466e-02 -6.1474193887925563e-02 0.0000000000000000e+00  2.0587516641654226e-02 -6.9718166967341524e-02 0.0000000000000000e+00  3.3113244607705046e-02 -7.6929758013194821e-02 0.0000000000000000e+00  3.4759285208482683e-02 -7.7112058515497586e-02 0.0000000000000000e+00  3.3067489958859927e-02 -8.7584483091466242e-02 0.0000000000000000e+00  1.3556231037470929e-02 -6.2429755221033729e-02 0.0000000000000000e+00  1.9631518010481460e-02 -8.6121025438979731e-02 0.0000000000000000e+00  1.4892725657904006e-02 -7.9265769971738412e-02 0.0000000000000000e+00  2.7619101765488974e-02 -1.1059252248256768e-01 0.0000000000000000e+00  3.4276377548958986e-02 -1.0751593983180591e-01 0.0000000000000000e+00  2.4094809835559006e-02 -1.4419395971332116e-01 0.0000000000000000e+00  -1.6430985639586037e-03 -1.1950162928657953e-03 0.0000000000000000e+00  -1.6787445890628150e-03 -1.2051392483216294e-03 0.0000000000000000e+00  -1.6865947400259628e-03 -1.2133122279274057e-03 0.0000000000000000e+00  -1.6638308429165443e-03 -1.2120606513395828e-03 0.0000000000000000e+00  -1.6121035542848575e-03 -1.1963107500548272e-03 0.0000000000000000e+00  -1.5343227956466608e-03 -1.1638393061378979e-03 0.0000000000000000e+00  -1.4330405255797538e-03 -1.1139366269799934e-03 0.0000000000000000e+00  -1.3101664718970715e-03 -1.0461097382077954e-03 0.0000000000000000e+00  -1.1666275105916160e-03 -9.5974881219915620e-04 0.0000000000000000e+00  -1.0023308259063386e-03 -8.5335464202393929e-04 0.0000000000000000e+00  -8.1593670730494548e-04 -7.2384154366693734e-04 0.0000000000000000e+00  -6.0415272093920693e-04 -5.6444318156783821e-04 0.0000000000000000e+00  -3.5358764850809254e-04 -3.5900634843604237e-04 0.0000000000000000e+00  -1.5880479892019981e-03 -1.2418924505495071e-03 0.0000000000000000e+00  -1.5657032427513473e-03 -1.3104117939729645e-03 0.0000000000000000e+00  -1.5335234910251888e-03 -1.4248433374673566e-03 0.0000000000000000e+00  -1.5039671109953641e-03 -1.6012603756963308e-03 0.0000000000000000e+00  -1.4836063905166105e-03 -1.8472797254959058e-03 0.0000000000000000e+00  -1.4805366228875720e-03 -2.1683555216625108e-03 0.0000000000000000e+00  -1.5007555122321225e-03 -2.5673776387768773e-03 0.0000000000000000e+00  -1.5478454812367128e-03 -3.0476774499445100e-03 0.0000000000000000e+00  -1.6251983328874763e-03 -3.6132075937818199e-03 0.0000000000000000e+00  -1.7330732225466551e-03 -4.2702956800634035e-03 0.0000000000000000e+00  -1.8705258559516995e-03 -5.0282788802846669e-03 0.0000000000000000e+00  -2.0346227745904892e-03 -5.8975580240672116e-03 0.0000000000000000e+00  -2.2217151286178538e-03 -6.8894539782516934e-03 0.0000000000000000e+00  -2.4287370810904037e-03 -8.0036488010665346e-03 0.0000000000000000e+00  -2.6502144305945359e-03 -9.2150632033387719e-03 0.0000000000000000e+00  -3.0721906867882663e-03 -1.1733951111869341e-02 0.0000000000000000e+00  -3.2292735034832910e-03 -1.2910900218696826e-02 0.0000000000000000e+00  -3.3363563520459830e-03 -1.3982110186034853e-02 0.0000000000000000e+00  -3.4038796037074446e-03 -1.4936593541696824e-02 0.0000000000000000e+00  -3.4578102816821147e-03 -1.5778406493119099e-02 0.0000000000000000e+00  -3.5233362164806283e-03 -1.6510208841988283e-02 0.0000000000000000e+00  -3.6162157874691995e-03 -1.7127219360521632e-02 0.0000000000000000e+00  -3.7364210473173512e-03 -1.7620577667336601e-02 0.0000000000000000e+00  -3.8728611058029823e-03 -1.7984071640274681e-02 0.0000000000000000e+00  -4.0045433941551436e-03 -1.8221212537563043e-02 0.0000000000000000e+00  -4.1110363475704553e-03 -1.8350531412941049e-02 0.0000000000000000e+00  -4.1806012766366293e-03 -1.8404267179453496e-02 0.0000000000000000e+00  -4.2161768332984835e-03 -1.8418111828074304e-02 0.0000000000000000e+00  -4.2289474369314054e-03 -1.8421109959957070e-02 0.0000000000000000e+00  -4.2317733753480750e-03 -1.8425002835060305e-02 0.0000000000000000e+00  -4.2492938580778921e-03 -1.8431022403190719e-02 0.0000000000000000e+00  -4.2431699535431114e-03 -1.8431151402922841e-02 0.0000000000000000e+00  -4.2373300072658104e-03 -1.8431278682013458e-02 0.0000000000000000e+00  -4.2564375536031235e-03 -1.8422060305904812e-02 0.0000000000000000e+00  -4.2558630118879927e-03 -1.8410858566784500e-02 0.0000000000000000e+00  -4.2467438207578088e-03 -1.8398827735205195e-02 0.0000000000000000e+00  -4.2166706712804996e-03 -1.8398788848610924e-02 0.0000000000000000e+00  -4.1528139119254908e-03 -1.8438050397573031e-02 0.0000000000000000e+00  -4.0551610214474339e-03 -1.8554884953157089e-02 0.0000000000000000e+00  -3.9324888943926238e-03 -1.8779112794712356e-02 0.0000000000000000e+00  -3.8066734425632074e-03 -1.9130888893454646e-02 0.0000000000000000e+00  -3.6975219981967562e-03 -1.9612890519346601e-02 0.0000000000000000e+00  -3.6170444313523113e-03 -2.0218320931196753e-02 0.0000000000000000e+00  -3.5638330987923369e-03 -2.0937889591903520e-02 0.0000000000000000e+00  -3.5200169207506983e-03 -2.1763963969382322e-02 0.0000000000000000e+00  -3.4578780786747396e-03 -2.2699567797241561e-02 0.0000000000000000e+00  -3.3453558164986733e-03 -2.3742960442838336e-02 0.0000000000000000e+00  -3.1631841346179156e-03 -2.4886290351673217e-02 0.0000000000000000e+00  -2.6019977306998097e-03 -2.7300526034877991e-02 0.0000000000000000e+00  -2.2632151574748976e-03 -2.8447175641953544e-02 0.0000000000000000e+00  -1.9178313381444652e-03 -2.9489479577876638e-02 0.0000000000000000e+00  -1.5909290821023902e-03 -3.0403660671642987e-02 0.0000000000000000e+00  -1.3068515636027972e-03 -3.1188063873523172e-02 0.0000000000000000e+00  -1.0857232863133253e-03 -3.1838554790671589e-02 0.0000000000000000e+00  -9.3544717448341877e-04 -3.2347035194485951e-02 0.0000000000000000e+00  -8.4851778886795991e-04 -3.2704172986949449e-02 0.0000000000000000e+00  -8.0808616628122128e-04 -3.2904728764925915e-02 0.0000000000000000e+00  -7.8863297363276788e-04 -3.2954427361840608e-02 0.0000000000000000e+00  -7.6700263366173422e-04 -3.2875306360738772e-02 0.0000000000000000e+00  -7.3034151729887552e-04 -3.2703786017372782e-02 0.0000000000000000e+00  -6.8179369439271378e-04 -3.2479835488076245e-02 0.0000000000000000e+00  -6.3330072846697809e-04 -3.2236590087092884e-02 0.0000000000000000e+00  -5.9879604848491808e-04 -3.1989082830839080e-02 0.0000000000000000e+00  -6.1181361951653307e-06 -3.1741772284209303e-02 0.0000000000000000e+00  -1.9917568985555712e-04 -3.1741751020058530e-02 0.0000000000000000e+00  -3.9248908815919245e-04 -3.1741727390836708e-02 0.0000000000000000e+00  1.9815050393197969e-04 -3.1986743433188504e-02 0.0000000000000000e+00  2.3596919258733268e-04 -3.2226831724715632e-02 0.0000000000000000e+00  3.0731791303516374e-04 -3.2461549057238741e-02 0.0000000000000000e+00  4.2422647847950579e-04 -3.2702292269559473e-02 0.0000000000000000e+00  5.9846867550038968e-04 -3.2975322884046483e-02 0.0000000000000000e+00  8.2790316149037907e-04 -3.3317442454171439e-02 0.0000000000000000e+00  1.1014121421694283e-03 -3.3755810832219880e-02 0.0000000000000000e+00  1.3954083115735789e-03 -3.4307074582951451e-02 0.0000000000000000e+00  1.6899052903794549e-03 -3.4970619862475433e-02 0.0000000000000000e+00  1.9739546272202419e-03 -3.5737682427636537e-02 0.0000000000000000e+00  2.2504929543653964e-03 -3.6598753290040330e-02 0.0000000000000000e+00  2.5377692039715250e-03 -3.7548355840816568e-02 0.0000000000000000e+00  2.8619798571420108e-03 -3.8592079241794759e-02 0.0000000000000000e+00  3.2491171376850623e-03 -3.9731860461218571e-02 0.0000000000000000e+00  3.7091262758500703e-03 -4.0963025261613051e-02 0.0000000000000000e+00  4.7758342477469268e-03 -4.3534458334293112e-02 0.0000000000000000e+00  5.3166166273560028e-03 -4.4743825508509028e-02 0.0000000000000000e+00  5.8265176637075436e-03 -4.5837305516369373e-02 0.0000000000000000e+00  6.2859183491363090e-03 -4.6789231766651458e-02 0.0000000000000000e+00  6.6744499486028957e-03 -4.7594242908547565e-02 0.0000000000000000e+00  6.9784870490487592e-03 -4.8251818590510878e-02 0.0000000000000000e+00  7.1948934732673836e-03 -4.8752580922672255e-02 0.0000000000000000e+00  7.3345624500252777e-03 -4.9087442115037599e-02 0.0000000000000000e+00  7.4197204375580517e-03 -4.9252086144400790e-02 0.0000000000000000e+00  7.4773022599962892e-03 -4.9254298222577285e-02 0.0000000000000000e+00  7.5315226605037339e-03 -4.9117882391126959e-02 0.0000000000000000e+00  7.5969058381191012e-03 -4.8883199988766099e-02 0.0000000000000000e+00  7.6686186347454943e-03 -4.8591919370422898e-02 0.0000000000000000e+00  7.7343822296143724e-03 -4.8278545810285560e-02 0.0000000000000000e+00  7.7795687051998852e-03 -4.7959757887105305e-02 0.0000000000000000e+00  8.5451660561729793e-03 -4.7640909106372649e-02 0.0000000000000000e+00  8.2957103876584674e-03 -4.7640768846293410e-02 0.0000000000000000e+00  8.0459879544023030e-03 -4.7640624638888095e-02 0.0000000000000000e+00  8.8091865746476126e-03 -4.7957840586515879e-02 0.0000000000000000e+00  8.8574671209735757e-03 -4.8269027544027031e-02 0.0000000000000000e+00  8.9464564911586261e-03 -4.8573438600703851e-02 0.0000000000000000e+00  9.0884282686376095e-03 -4.8882205127976974e-02 0.0000000000000000e+00  9.2953726444408111e-03 -4.9221517956539923e-02 0.0000000000000000e+00  9.5651240651309453e-03 -4.9628451624930355e-02 0.0000000000000000e+00  9.8857998630693111e-03 -5.0130079741398922e-02 0.0000000000000000e+00  1.0233868788215437e-02 -5.0741262613930672e-02 0.0000000000000000e+00  1.0591426549528635e-02 -5.1459707441657905e-02 0.0000000000000000e+00  1.0950222073427204e-02 -5.2275924689249971e-02 0.0000000000000000e+00  1.1318386805339807e-02 -5.3178811785739417e-02 0.0000000000000000e+00  1.1720287144767303e-02 -5.4164337607744327e-02 0.0000000000000000e+00  1.2191294206647803e-02 -5.5235572378765863e-02 0.0000000000000000e+00  1.2765110497318656e-02 -5.6397138904474800e-02 0.0000000000000000e+00  1.3458013808810175e-02 -5.7644363906943497e-02 0.0000000000000000e+00  1.5110126253571171e-02 -6.0235124902640810e-02 0.0000000000000000e+00  1.5970851415490241e-02 -6.1442084520196318e-02 0.0000000000000000e+00  1.6795060453802146e-02 -6.2518072637361713e-02 0.0000000000000000e+00  1.7550900673037419e-02 -6.3431700715508313e-02 0.0000000000000000e+00  1.8210947408958626e-02 -6.4173049233556378e-02 0.0000000000000000e+00  1.8759170164507986e-02 -6.4738295711974370e-02 0.0000000000000000e+00  1.9193186988238662e-02 -6.5115007796309562e-02 0.0000000000000000e+00  1.9526762676004696e-02 -6.5293400267426790e-02 0.0000000000000000e+00  1.9785277031867915e-02 -6.5270869515164434e-02 0.0000000000000000e+00  1.9997566803055877e-02 -6.5059319268806690e-02 0.0000000000000000e+00  2.0187910771468923e-02 -6.4688071657305349e-02 0.0000000000000000e+00  2.0369158966481008e-02 -6.4203172490493871e-02 0.0000000000000000e+00  2.0533937461698865e-02 -6.3650838139988605e-02 0.0000000000000000e+00  2.0667754630286580e-02 -6.3068943133082950e-02 0.0000000000000000e+00  2.0754568954596625e-02 -6.2476670304162159e-02 0.0000000000000000e+00  2.2184809883559305e-02 -6.1884119567329601e-02 0.0000000000000000e+00  2.1718712848155082e-02 -6.1883172864131766e-02 0.0000000000000000e+00  2.1252292273326933e-02 -6.1882221332421786e-02 0.0000000000000000e+00  2.2677999123810685e-02 -6.2477902138801146e-02 0.0000000000000000e+00  2.2765787417136286e-02 -6.3062469346533340e-02 0.0000000000000000e+00  2.2921041612536244e-02 -6.3634688876635023e-02 0.0000000000000000e+00  2.3155974345160469e-02 -6.4203003941821740e-02 0.0000000000000000e+00  2.3482625452496721e-02 -6.4791401275471505e-02 0.0000000000000000e+00  2.3899047834609964e-02 -6.5435091991588812e-02 0.0000000000000000e+00  2.4393928363859174e-02 -6.6159180990296190e-02 0.0000000000000000e+00  2.4945569163006203e-02 -6.6976485292641233e-02 0.0000000000000000e+00  2.5539857028067013e-02 -6.7883210283560744e-02 0.0000000000000000e+00  2.6174522326927699e-02 -6.8870086302446482e-02 0.0000000000000000e+00  2.6864897050552516e-02 -6.9929436860933489e-02 0.0000000000000000e+00  2.7641736630179933e-02 -7.1064036151064172e-02 0.0000000000000000e+00  2.8540976640975071e-02 -7.2289393695364065e-02 0.0000000000000000e+00  2.9582887044632532e-02 -7.3628409676402745e-02 0.0000000000000000e+00  3.0748757121451895e-02 -7.5095102779109912e-02 0.0000000000000000e+00  3.3099763912880553e-02 -7.8295536538198499e-02 0.0000000000000000e+00  3.4075576385554675e-02 -7.9876016092694235e-02 0.0000000000000000e+00  3.4853209027488459e-02 -8.1348913036768167e-02 0.0000000000000000e+00  3.5448530720187769e-02 -8.2666727452366029e-02 0.0000000000000000e+00  3.5901107297078079e-02 -8.3824979889079790e-02 0.0000000000000000e+00  3.6246720589528603e-02 -8.4843120975622868e-02 0.0000000000000000e+00  3.6510876418385289e-02 -8.5743429670585181e-02 0.0000000000000000e+00  3.6709308343554251e-02 -8.6548418777880901e-02 0.0000000000000000e+00  3.6850492544692838e-02 -8.7275380730567911e-02 0.0000000000000000e+00  3.6940633239632439e-02 -8.7934674063865848e-02 0.0000000000000000e+00  3.6983876536530465e-02 -8.8531370171442525e-02 0.0000000000000000e+00  3.6985397096990495e-02 -8.9063658622838895e-02 0.0000000000000000e+00  3.6954752576723232e-02 -8.9527049798032624e-02 0.0000000000000000e+00  3.6903237545231671e-02 -8.9916051138128519e-02 0.0000000000000000e+00  3.6855408819557893e-02 -9.0232912777722468e-02 0.0000000000000000e+00  3.4723109355729566e-02 -9.2595046227145567e-02 0.0000000000000000e+00  3.4967177723788441e-02 -9.2290950723621340e-02 0.0000000000000000e+00  3.5182254596560984e-02 -9.1988216494557837e-02 0.0000000000000000e+00  3.5364515984406326e-02 -9.1696535389554801e-02 0.0000000000000000e+00  3.5515656497568368e-02 -9.1424887765653509e-02 0.0000000000000000e+00  3.5640854563123561e-02 -9.1180223907961475e-02 0.0000000000000000e+00  3.5747507065047687e-02 -9.0968161003559866e-02 0.0000000000000000e+00  3.5844640066730951e-02 -9.0793132955765965e-02 0.0000000000000000e+00  3.5942695988692951e-02 -9.0658338123146151e-02 0.0000000000000000e+00  3.6053231689395976e-02 -9.0565246030176419e-02 0.0000000000000000e+00  3.6189256342572342e-02 -9.0513238701354942e-02 0.0000000000000000e+00  3.6363459680505250e-02 -9.0495841067201530e-02 0.0000000000000000e+00  3.6583501393483327e-02 -9.0500807806755942e-02 0.0000000000000000e+00  7.2562159020889014e-02 -1.9325256258381382e-01 0.0000000000000000e+00  7.2436420554767608e-02 -1.9084701106097771e-01 0.0000000000000000e+00  7.2301404963073537e-02 -1.8841878678949087e-01 0.0000000000000000e+00  7.2150388605242616e-02 -1.8595454091545008e-01 0.0000000000000000e+00  7.1974834492231840e-02 -1.8344930916231730e-01 0.0000000000000000e+00  7.1768999615397108e-02 -1.8090416738863960e-01 0.0000000000000000e+00  7.1529552374889019e-02 -1.7832332473369228e-01 0.0000000000000000e+00  7.1254802075816109e-02 -1.7571325868806886e-01 0.0000000000000000e+00  7.0945730347359903e-02 -1.7308146774087774e-01 0.0000000000000000e+00  7.0604600838536341e-02 -1.7043560841783856e-01 0.0000000000000000e+00  7.0234832423743176e-02 -1.6778293966055025e-01 0.0000000000000000e+00  6.9840275198975774e-02 -1.6513034925227896e-01 0.0000000000000000e+00  6.9424944934565705e-02 -1.6248414204004313e-01 0.0000000000000000e+00  6.8992419178464021e-02 -1.5985010150847045e-01 0.0000000000000000e+00  6.8545474823616712e-02 -1.5723380350180680e-01 0.0000000000000000e+00  6.8085807942544804e-02 -1.5464107899819385e-01 0.0000000000000000e+00  6.7614286393403680e-02 -1.5207815684193110e-01 0.0000000000000000e+00  6.7130202686483217e-02 -1.4955286508767882e-01 0.0000000000000000e+00  6.6632183326894134e-02 -1.4707434554285367e-01 0.0000000000000000e+00  6.6117918098274289e-02 -1.4465431173705823e-01 0.0000000000000000e+00  6.5584558034556290e-02 -1.4230811203577387e-01 0.0000000000000000e+00  6.5028926450828597e-02 -1.4005710096041321e-01 0.0000000000000000e+00  6.4447869483748574e-02 -1.3793765517178919e-01 0.0000000000000000e+00  6.3854644721159454e-02 -1.3602102188962842e-01 0.0000000000000000e+00  6.3272435977367827e-02 -1.3426478995524666e-01 0.0000000000000000e+00  6.2701227836901893e-02 -1.3262194701099198e-01 0.0000000000000000e+00  6.2138930302853800e-02 -1.3107361394294550e-01 0.0000000000000000e+00  6.1584927218667984e-02 -1.2960678334591980e-01 0.0000000000000000e+00  6.1038882414304794e-02 -1.2821194324262974e-01 0.0000000000000000e+00  6.0501452274634993e-02 -1.2688152226608268e-01 0.0000000000000000e+00  5.9973715773298714e-02 -1.2560888480903137e-01 0.0000000000000000e+00  5.9457353463703407e-02 -1.2438792333735299e-01 0.0000000000000000e+00  5.8954416504068137e-02 -1.2321268630527760e-01 0.0000000000000000e+00  5.8466993708055415e-02 -1.2207739073418296e-01 0.0000000000000000e+00  5.7997375390306680e-02 -1.2097599118732116e-01 0.0000000000000000e+00  5.7547480624025017e-02 -1.1990248526953327e-01 0.0000000000000000e+00  5.7118927789071516e-02 -1.1885098205262538e-01 0.0000000000000000e+0