<?xml version="1.0"?>
<VTKFile type="UnstructuredGrid"  version="0.1"  >
<UnstructuredGrid>
<Piece  NumberOfPoints="12853" NumberOfCells="23493">
<Points>
<DataArray  type="Float64"  NumberOfComponents="3"  format="ascii">-3.187178156719634e-14 1.7 0  0 0 0  1.3 3 0  -3.185690647650846e-14 4.300000000000001 0  -3.187178156719634e-14 4.699999999999999 0  1.3 6 0  -3.185690647650846e-14 7.300000000000001 0  -3.187178156719634e-14 7.699999999999999 0  1.3 9 0  -3.185690647650846e-14 10.3 0  -3.187178156719634e-14 10.7 0  1.3 12 0  -3.185690647650846e-14 13.3 0  -3.187178156719634e-14 13.7 0  1.3 15 0  -3.185690647650846e-14 16.3 0  0 18 0  18 18 0  17.99999999999997 16.3 0  17.99999999999997 13.7 0  17.99999999999997 13.3 0  17.99999999999997 10.7 0  17.99999999999997 10.3 0  17.99999999999997 7.7 0  17.99999999999997 7.3 0  17.99999999999997 4.7 0  17.99999999999997 4.3 0  17.99999999999997 1.7 0  18 0 0  4.3 3 0  7.3 3 0  10.3 3 0  4.3 6 0  7.3 6 0  10.3 6 0  13.3 3 0  16.3 3 0  13.3 6 0  16.3 6 0  4.3 9 0  4.3 12 0  7.3 9 0  10.3 9 0  7.3 12 0  10.3 12 0  4.3 15 0  7.3 15 0  10.3 15 0  13.3 9 0  13.3 12 0  16.3 9 0  16.3 12 0  13.3 15 0  16.3 15 0  0 1.578571428571429 0  0 1.457142857142856 0  0 1.335714285714285 0  0 1.214285714285712 0  0 1.092857142857142 0  0 0.9714285714285715 0  0 0.8499999999999979 0  0 0.7285714285714278 0  0 0.6071428571428577 0  0 0.485714285714284 0  0 0.3642857142857139 0  0 0.2428571428571438 0  0 0.1214285714285701 0  0.1274222824284281 1.706259855326144 0  0.2536174186209668 1.7249791354758 0  0.3773700804308007 1.755977563548128 0  0.497488462074617 1.798956607735327 0  0.6128157578737968 1.853502356347138 0  0.7222413029254824 1.919089504006691 0  0.8247112694127393 1.995086410628442 0  0.9192388155425116 2.080761184457488 0  1.004913589371558 2.17528873058726 0  1.080910495993309 2.277758697074517 0  1.146497643652861 2.387184242126203 0  1.201043392264673 2.502511537925383 0  1.244022436451871 2.622629919569199 0  1.275020864524199 2.746382581379033 0  1.293740144673856 2.872577717571571 0  1.293740144673856 3.127422282428428 0  1.2750208645242 3.253617418620966 0  1.244022436451872 3.3773700804308 0  1.201043392264673 3.497488462074616 0  1.146497643652862 3.612815757873796 0  1.08091049599331 3.722241302925481 0  1.00491358937156 3.824711269412738 0  0.9192388155425134 3.91923881554251 0  0.8247112694127412 4.004913589371556 0  0.7222413029254846 4.080910495993308 0  0.6128157578737984 4.146497643652861 0  0.4974884620746181 4.201043392264673 0  0.3773700804308024 4.244022436451871 0  0.2536174186209674 4.275020864524199 0  0.127422282428429 4.293740144673856 0  0 4.6 0  0 4.5 0  0 4.4 0  0.1274222824284281 4.706259855326143 0  0.2536174186209668 4.724979135475801 0  0.3773700804308007 4.755977563548129 0  0.497488462074617 4.798956607735327 0  0.6128157578737968 4.853502356347138 0  0.7222413029254824 4.919089504006691 0  0.8247112694127393 4.995086410628442 0  0.9192388155425116 5.080761184457488 0  1.004913589371558 5.17528873058726 0  1.080910495993309 5.277758697074518 0  1.146497643652861 5.387184242126203 0  1.201043392264673 5.502511537925383 0  1.244022436451871 5.622629919569198 0  1.275020864524199 5.746382581379033 0  1.293740144673856 5.872577717571572 0  1.293740144673856 6.127422282428428 0  1.2750208645242 6.253617418620967 0  1.244022436451872 6.377370080430801 0  1.201043392264673 6.497488462074616 0  1.146497643652862 6.612815757873795 0  1.08091049599331 6.722241302925481 0  1.00491358937156 6.824711269412737 0  0.9192388155425134 6.91923881554251 0  0.8247112694127412 7.004913589371556 0  0.7222413029254846 7.080910495993308 0  0.6128157578737984 7.146497643652861 0  0.4974884620746181 7.201043392264673 0  0.3773700804308024 7.244022436451871 0  0.2536174186209674 7.275020864524199 0  0.127422282428429 7.293740144673856 0  0 7.6 0  0 7.5 0  0 7.4 0  0.1274222824284281 7.706259855326143 0  0.2536174186209668 7.724979135475801 0  0.3773700804308007 7.755977563548129 0  0.497488462074617 7.798956607735327 0  0.6128157578737968 7.853502356347138 0  0.7222413029254824 7.919089504006691 0  0.8247112694127393 7.995086410628442 0  0.9192388155425116 8.080761184457488 0  1.004913589371558 8.17528873058726 0  1.080910495993309 8.277758697074518 0  1.146497643652861 8.387184242126203 0  1.201043392264673 8.502511537925383 0  1.244022436451871 8.622629919569199 0  1.275020864524199 8.746382581379033 0  1.293740144673856 8.872577717571572 0  1.293740144673856 9.127422282428428 0  1.2750208645242 9.253617418620966 0  1.244022436451872 9.377370080430801 0  1.201043392264673 9.497488462074616 0  1.146497643652862 9.612815757873795 0  1.08091049599331 9.722241302925481 0  1.00491358937156 9.824711269412738 0  0.9192388155425134 9.91923881554251 0  0.8247112694127412 10.00491358937156 0  0.7222413029254846 10.08091049599331 0  0.6128157578737984 10.14649764365286 0  0.4974884620746181 10.20104339226467 0  0.3773700804308024 10.24402243645187 0  0.2536174186209674 10.2750208645242 0  0.127422282428429 10.29374014467386 0  0 10.6 0  0 10.5 0  0 10.4 0  0.1274222824284281 10.70625985532614 0  0.2536174186209668 10.7249791354758 0  0.3773700804308007 10.75597756354813 0  0.497488462074617 10.79895660773533 0  0.6128157578737968 10.85350235634714 0  0.7222413029254824 10.91908950400669 0  0.8247112694127393 10.99508641062844 0  0.9192388155425116 11.08076118445749 0  1.004913589371558 11.17528873058726 0  1.080910495993309 11.27775869707452 0  1.146497643652861 11.3871842421262 0  1.201043392264673 11.50251153792538 0  1.244022436451871 11.6226299195692 0  1.275020864524199 11.74638258137903 0  1.293740144673856 11.87257771757157 0  1.293740144673856 12.12742228242843 0  1.2750208645242 12.25361741862097 0  1.244022436451872 12.3773700804308 0  1.201043392264673 12.49748846207462 0  1.146497643652862 12.6128157578738 0  1.08091049599331 12.72224130292548 0  1.00491358937156 12.82471126941274 0  0.9192388155425134 12.91923881554251 0  0.8247112694127412 13.00491358937156 0  0.7222413029254846 13.08091049599331 0  0.6128157578737984 13.14649764365286 0  0.4974884620746181 13.20104339226467 0  0.3773700804308024 13.24402243645187 0  0.2536174186209674 13.2750208645242 0  0.127422282428429 13.29374014467386 0  0 13.6 0  0 13.5 0  0 13.4 0  0.1274222824284281 13.70625985532614 0  0.2536174186209668 13.7249791354758 0  0.3773700804308007 13.75597756354813 0  0.497488462074617 13.79895660773533 0  0.6128157578737968 13.85350235634714 0  0.7222413029254824 13.91908950400669 0  0.8247112694127393 13.99508641062844 0  0.9192388155425116 14.08076118445749 0  1.004913589371558 14.17528873058726 0  1.080910495993309 14.27775869707452 0  1.146497643652861 14.3871842421262 0  1.201043392264673 14.50251153792538 0  1.244022436451871 14.6226299195692 0  1.275020864524199 14.74638258137903 0  1.293740144673856 14.87257771757157 0  1.293740144673856 15.12742228242843 0  1.2750208645242 15.25361741862097 0  1.244022436451872 15.3773700804308 0  1.201043392264673 15.49748846207462 0  1.146497643652862 15.6128157578738 0  1.08091049599331 15.72224130292548 0  1.00491358937156 15.82471126941274 0  0.9192388155425134 15.91923881554251 0  0.8247112694127412 16.00491358937156 0  0.7222413029254846 16.08091049599331 0  0.6128157578737984 16.14649764365286 0  0.4974884620746181 16.20104339226467 0  0.3773700804308024 16.24402243645187 0  0.2536174186209674 16.2750208645242 0  0.127422282428429 16.29374014467385 0  0 17.87857142857143 0  0 17.75714285714286 0  0 17.63571428571429 0  0 17.51428571428571 0  0 17.39285714285714 0  0 17.27142857142857 0  0 17.15 0  0 17.02857142857143 0  0 16.90714285714286 0  0 16.78571428571428 0  0 16.66428571428571 0  0 16.54285714285714 0  0 16.42142857142857 0  17.8705035971223 18 0  17.7410071942446 18 0  17.61151079136691 18 0  17.48201438848921 18 0  17.35251798561151 18 0  17.22302158273381 18 0  17.09352517985612 18 0  16.96402877697842 18 0  16.83453237410072 18 0  16.70503597122302 18 0  16.57553956834532 18 0  16.44604316546762 18 0  16.31654676258993 18 0  16.18705035971223 18 0  16.05755395683453 18 0  15.92805755395683 18 0  15.79856115107913 18 0  15.66906474820144 18 0  15.53956834532374 18 0  15.41007194244604 18 0  15.28057553956834 18 0  15.15107913669064 18 0  15.02158273381295 18 0  14.89208633093525 18 0  14.76258992805755 18 0  14.63309352517985 18 0  14.50359712230215 18 0  14.37410071942446 18 0  14.24460431654676 18 0  14.11510791366906 18 0  13.98561151079136 18 0  13.85611510791366 18 0  13.72661870503597 18 0  13.59712230215827 18 0  13.46762589928057 18 0  13.33812949640287 18 0  13.20863309352517 18 0  13.07913669064748 18 0  12.94964028776977 18 0  12.82014388489208 18 0  12.69064748201438 18 0  12.56115107913668 18 0  12.43165467625898 18 0  12.30215827338128 18 0  12.17266187050359 18 0  12.04316546762589 18 0  11.91366906474819 18 0  11.78417266187049 18 0  11.65467625899279 18 0  11.52517985611509 18 0  11.3956834532374 18 0  11.2661870503597 18 0  11.136690647482 18 0  11.0071942446043 18 0  10.8776978417266 18 0  10.7482014388489 18 0  10.6187050359712 18 0  10.48920863309351 18 0  10.35971223021581 18 0  10.23021582733811 18 0  10.10071942446041 18 0  9.971223021582714 18 0  9.841726618705016 18 0  9.712230215827317 18 0  9.582733812949618 18 0  9.453237410071921 18 0  9.323741007194224 18 0  9.194244604316525 18 0  9.064748201438828 18 0  8.935251798561131 18 0  8.805755395683434 18 0  8.676258992805735 18 0  8.546762589928038 18 0  8.417266187050341 18 0  8.287769784172642 18 0  8.158273381294947 18 0  8.028776978417248 18 0  7.899280575539549 18 0  7.769784172661854 18 0  7.640287769784155 18 0  7.510791366906458 18 0  7.381294964028761 18 0  7.251798561151062 18 0  7.122302158273365 18 0  6.992805755395668 18 0  6.86330935251797 18 0  6.733812949640273 18 0  6.604316546762576 18 0  6.474820143884878 18 0  6.34532374100718 18 0  6.215827338129483 18 0  6.086330935251786 18 0  5.956834532374087 18 0  5.827338129496392 18 0  5.697
[...]
<PointData  Vectors="f_21"> 
<DataArray  type="Float64"  Name="f_21"  NumberOfComponents="3" format="ascii">-1.4104200018656930e-03 -1.0549403837877365e-03 0.0000000000000000e+00  0.0000000000000000e+00 0.0000000000000000e+00 0.0000000000000000e+00  -2.5490539027872463e-03 -9.2758794862158270e-03 0.0000000000000000e+00  -3.7707515511061318e-03 -1.6325782980295099e-02 0.0000000000000000e+00  -3.7973368937167700e-03 -1.6325603174596876e-02 0.0000000000000000e+00  -2.6373238336676397e-03 -2.3089870048459669e-02 0.0000000000000000e+00  -6.4126873863587356e-04 -2.8139253661574166e-02 0.0000000000000000e+00  2.5860907280304572e-05 -2.8139558515276487e-02 0.0000000000000000e+00  3.5317609797350102e-03 -3.7382522702794359e-02 0.0000000000000000e+00  6.6230868190888595e-03 -4.2186709377757467e-02 0.0000000000000000e+00  7.4915456460298811e-03 -4.2187392276609864e-02 0.0000000000000000e+00  1.2249204023256514e-02 -5.2139300729975413e-02 0.0000000000000000e+00  1.7913368524013536e-02 -5.4820120069005232e-02 0.0000000000000000e+00  1.9533126471059443e-02 -5.4823206766186600e-02 0.0000000000000000e+00  2.7641730102754721e-02 -6.7791593515111215e-02 0.0000000000000000e+00  3.1900575986915536e-02 -8.0001285946101466e-02 0.0000000000000000e+00  2.9787138844507125e-02 -8.2108006399747302e-02 0.0000000000000000e+00  6.3451835648816610e-02 -1.7228206949133554e-01 0.0000000000000000e+00  3.4338243929347825e-02 -1.6987007995340955e-01 0.0000000000000000e+00  2.8155615878654127e-02 -1.1290702307191187e-01 0.0000000000000000e+00  2.7823483392848562e-02 -1.1290705031207268e-01 0.0000000000000000e+00  2.2549852557209100e-02 -9.0944329910332120e-02 0.0000000000000000e+00  2.0609299509124598e-02 -9.0940178805862568e-02 0.0000000000000000e+00  1.4736979796730632e-02 -5.9408678051104717e-02 0.0000000000000000e+00  1.3965449594089538e-02 -5.9408405785044541e-02 0.0000000000000000e+00  9.5913486041301812e-03 -3.3659895998456542e-02 0.0000000000000000e+00  8.5945769039433399e-03 -3.3659070769376555e-02 0.0000000000000000e+00  2.3585162614356333e-03 -1.8487821093429373e-03 0.0000000000000000e+00  0.0000000000000000e+00 0.0000000000000000e+00 0.0000000000000000e+00  -1.4860230758593639e-03 -9.3291558395469203e-03 0.0000000000000000e+00  -7.2396422162429618e-04 -9.4292346786134223e-03 0.0000000000000000e+00  -4.3940769272650274e-04 -1.0483412784519180e-02 0.0000000000000000e+00  8.5133331980829057e-06 -2.3828014320995169e-02 0.0000000000000000e+00  1.4643366411231219e-03 -2.4546488700498650e-02 0.0000000000000000e+00  3.3462170080640506e-03 -2.7711191283566226e-02 0.0000000000000000e+00  3.7330581964830750e-04 -1.2631054144479599e-02 0.0000000000000000e+00  1.8742836395203289e-03 -1.6118030777528564e-02 0.0000000000000000e+00  4.6984415499256331e-03 -3.4106363089762136e-02 0.0000000000000000e+00  8.9653035992145330e-03 -4.2991533277713996e-02 0.0000000000000000e+00  5.3624094598326219e-03 -3.8624769711831493e-02 0.0000000000000000e+00  1.5175150448173556e-02 -5.3340873098058593e-02 0.0000000000000000e+00  7.6071730442290389e-03 -3.9614886334772871e-02 0.0000000000000000e+00  8.6826854955396153e-03 -4.4881020001187370e-02 0.0000000000000000e+00  1.5883610331438598e-02 -5.4330914998856818e-02 0.0000000000000000e+00  1.7803317546655730e-02 -6.1603117098760818e-02 0.0000000000000000e+00  2.8688476826375379e-02 -6.7988937670607985e-02 0.0000000000000000e+00  3.0123338663426143e-02 -6.8143233932964259e-02 0.0000000000000000e+00  2.8657792402657006e-02 -7.7392406364614988e-02 0.0000000000000000e+00  1.1738249314164652e-02 -5.5124201351265903e-02 0.0000000000000000e+00  1.7045972326371190e-02 -7.6037325894722202e-02 0.0000000000000000e+00  1.3033508779903041e-02 -6.9880999546010306e-02 0.0000000000000000e+00  2.3937510649905670e-02 -9.7506576167425807e-02 0.0000000000000000e+00  2.9700769148943734e-02 -9.4934159970478951e-02 0.0000000000000000e+00  2.0952329199479765e-02 -1.2713567169088255e-01 0.0000000000000000e+00  -1.4536369338251740e-03 -1.0573828509827712e-03 0.0000000000000000e+00  -1.4851094260841307e-03 -1.0663328608555569e-03 0.0000000000000000e+00  -1.4919890120582984e-03 -1.0735452574797959e-03 0.0000000000000000e+00  -1.4717905576215266e-03 -1.0724084517247101e-03 0.0000000000000000e+00  -1.4259800013184702e-03 -1.0584370733869477e-03 0.0000000000000000e+00  -1.3571348578011939e-03 -1.0296684945072002e-03 0.0000000000000000e+00  -1.2675143209097874e-03 -9.8547793890697431e-04 0.0000000000000000e+00  -1.1588083192919328e-03 -9.2543256668727741e-04 0.0000000000000000e+00  -1.0318366887770163e-03 -8.4899567744586054e-04 0.0000000000000000e+00  -8.8651666827176123e-04 -7.5484381782382705e-04 0.0000000000000000e+00  -7.2166188725364682e-04 -6.4025031132355502e-04 0.0000000000000000e+00  -5.3435763527817941e-04 -4.9923352479154927e-04 0.0000000000000000e+00  -3.1275664406571366e-04 -3.1751223572286982e-04 0.0000000000000000e+00  -1.4049899181982955e-03 -1.0988010051192635e-03 0.0000000000000000e+00  -1.3852361808503577e-03 -1.1593806513733955e-03 0.0000000000000000e+00  -1.3568038737561338e-03 -1.2605871631992973e-03 0.0000000000000000e+00  -1.3307200755609131e-03 -1.4166315752704266e-03 0.0000000000000000e+00  -1.3128039866904346e-03 -1.6342458109751335e-03 0.0000000000000000e+00  -1.3102227945617319e-03 -1.9182508058636690e-03 0.0000000000000000e+00  -1.3282890071027722e-03 -2.2712028583415996e-03 0.0000000000000000e+00  -1.3701822732623504e-03 -2.6960539896147373e-03 0.0000000000000000e+00  -1.4389154523180257e-03 -3.1963118445343663e-03 0.0000000000000000e+00  -1.5347361261865767e-03 -3.7775917743255571e-03 0.0000000000000000e+00  -1.6568348358890212e-03 -4.4481799021353239e-03 0.0000000000000000e+00  -1.8026515624928365e-03 -5.2173112540223870e-03 0.0000000000000000e+00  -1.9690009544977871e-03 -6.0950409690375702e-03 0.0000000000000000e+00  -2.1532123115685507e-03 -7.0811285710324816e-03 0.0000000000000000e+00  -2.3504774655946315e-03 -8.1534125192886855e-03 0.0000000000000000e+00  -2.7272674664229495e-03 -1.0383357626308064e-02 0.0000000000000000e+00  -2.8682925439321673e-03 -1.1425374178834255e-02 0.0000000000000000e+00  -2.9651501490963470e-03 -1.2373762812054627e-02 0.0000000000000000e+00  -3.0269411487034510e-03 -1.3218807726356358e-02 0.0000000000000000e+00  -3.0765341229965003e-03 -1.3964152663961301e-02 0.0000000000000000e+00  -3.1361644404588312e-03 -1.4612225915652173e-02 0.0000000000000000e+00  -3.2197741951191395e-03 -1.5158872685908212e-02 0.0000000000000000e+00  -3.3273704399282250e-03 -1.5596302440964820e-02 0.0000000000000000e+00  -3.4491731666937359e-03 -1.5919036725359853e-02 0.0000000000000000e+00  -3.5666378142848133e-03 -1.6130164237538609e-02 0.0000000000000000e+00  -3.6616969914269604e-03 -1.6246042086037509e-02 0.0000000000000000e+00  -3.7239587622901740e-03 -1.6295151320026062e-02 0.0000000000000000e+00  -3.7560085940054840e-03 -1.6309036248880200e-02 0.0000000000000000e+00  -3.7677264244424451e-03 -1.6313370799258410e-02 0.0000000000000000e+00  -3.7704809261597618e-03 -1.6318526961116901e-02 0.0000000000000000e+00  -3.7901334702232252e-03 -1.6325579907187512e-02 0.0000000000000000e+00  -3.7833602619471531e-03 -1.6325694209715372e-02 0.0000000000000000e+00  -3.7768378508920937e-03 -1.6325806992458516e-02 0.0000000000000000e+00  -3.7978934624626755e-03 -1.6315924266050375e-02 0.0000000000000000e+00  -3.7976383618861672e-03 -1.6304304774178810e-02 0.0000000000000000e+00  -3.7899909861067887e-03 -1.6291987826499248e-02 0.0000000000000000e+00  -3.7639730458389289e-03 -1.6290333369419614e-02 0.0000000000000000e+00  -3.7082345826780641e-03 -1.6323514791201397e-02 0.0000000000000000e+00  -3.6227639672184713e-03 -1.6425402304615363e-02 0.0000000000000000e+00  -3.5153245103433767e-03 -1.6622389852203413e-02 0.0000000000000000e+00  -3.4052726400030410e-03 -1.6932329556686179e-02 0.0000000000000000e+00  -3.3101471922082140e-03 -1.7357626167664845e-02 0.0000000000000000e+00  -3.2406094495649306e-03 -1.7892320219121592e-02 0.0000000000000000e+00  -3.1954842976121278e-03 -1.8528262275349629e-02 0.0000000000000000e+00  -3.1590873526655180e-03 -1.9258774743749495e-02 0.0000000000000000e+00  -3.1070892506297101e-03 -2.0086607592773247e-02 0.0000000000000000e+00  -3.0113748700707900e-03 -2.1010225586989589e-02 0.0000000000000000e+00  -2.8551021933987618e-03 -2.2022634251802925e-02 0.0000000000000000e+00  -2.3712342364374242e-03 -2.4160688175649137e-02 0.0000000000000000e+00  -2.0783821117359535e-03 -2.5176156624448366e-02 0.0000000000000000e+00  -1.7794420540883336e-03 -2.6099308978275365e-02 0.0000000000000000e+00  -1.4963286178147751e-03 -2.6909276476685517e-02 0.0000000000000000e+00  -1.2504759171636909e-03 -2.7604729962134807e-02 0.0000000000000000e+00  -1.0596805019334812e-03 -2.8182151287969203e-02 0.0000000000000000e+00  -9.3099428293283329e-04 -2.8634469121994324e-02 0.0000000000000000e+00  -8.5786508790086917e-04 -2.8953464240845408e-02 0.0000000000000000e+00  -8.2545291834560058e-04 -2.9134487644351392e-02 0.0000000000000000e+00  -8.1122802185278769e-04 -2.9182535070813656e-02 0.0000000000000000e+00  -7.9470966036677255e-04 -2.9117005669781374e-02 0.0000000000000000e+00  -7.6449925586635780e-04 -2.8970020688764708e-02 0.0000000000000000e+00  -7.2333618638565831e-04 -2.8776858776332823e-02 0.0000000000000000e+00  -6.8174451061854199e-04 -2.8566772553862189e-02 0.0000000000000000e+00  -6.5202557483330192e-04 -2.8353013408177759e-02 0.0000000000000000e+00  -1.4036716143645876e-04 -2.8139401028209884e-02 0.0000000000000000e+00  -3.0703523791783299e-04 -2.8139408483394628e-02 0.0000000000000000e+00  -4.7392902637801744e-04 -2.8139413909009776e-02 0.0000000000000000e+00  3.5994325618136778e-05 -2.8350837583022138e-02 0.0000000000000000e+00  6.8711786245399218e-05 -2.8558028999656274e-02 0.0000000000000000e+00  1.3058213451718498e-04 -2.8760568337526538e-02 0.0000000000000000e+00  2.3225486645770990e-04 -2.8968583305090414e-02 0.0000000000000000e+00  3.8415894874108803e-04 -2.9205344581222533e-02 0.0000000000000000e+00  5.8442023058807987e-04 -2.9503446588145264e-02 0.0000000000000000e+00  8.2322257621567660e-04 -2.9886961815298964e-02 0.0000000000000000e+00  1.0797044543243274e-03 -3.0370677464169969e-02 0.0000000000000000e+00  1.3361598521849586e-03 -3.0954121662932370e-02 0.0000000000000000e+00  1.5828410331047067e-03 -3.1629613769451718e-02 0.0000000000000000e+00  1.8222410582618526e-03 -3.2388804845253076e-02 0.0000000000000000e+00  2.0703584935514293e-03 -3.3226881602772124e-02 0.0000000000000000e+00  2.3501861995242259e-03 -3.4148800996930857e-02 0.0000000000000000e+00  2.6845763427503157e-03 -3.5156164080414457e-02 0.0000000000000000e+00  3.0823549938070963e-03 -3.6244694140535862e-02 0.0000000000000000e+00  4.0063393735304681e-03 -3.8518294743379124e-02 0.0000000000000000e+00  4.4756816610713457e-03 -3.9587493417360599e-02 0.0000000000000000e+00  4.9188427530087175e-03 -4.0554288829792728e-02 0.0000000000000000e+00  5.3185357584147799e-03 -4.1396196936873061e-02 0.0000000000000000e+00  5.6566405333982103e-03 -4.2108629060978016e-02 0.0000000000000000e+00  5.9209278143076208e-03 -4.2691216709262479e-02 0.0000000000000000e+00  6.1084381662602156e-03 -4.3135747511554516e-02 0.0000000000000000e+00  6.2286356268569654e-03 -4.3434202661024171e-02 0.0000000000000000e+00  6.3010423567687653e-03 -4.3582730505541137e-02 0.0000000000000000e+00  6.3493980528790961e-03 -4.3588129645048233e-02 0.0000000000000000e+00  6.3950888364624967e-03 -4.3471336771692091e-02 0.0000000000000000e+00  6.4509751099182449e-03 -4.3267929528380551e-02 0.0000000000000000e+00  6.5128247309194339e-03 -4.3014668137716275e-02 0.0000000000000000e+00  6.5698202020217930e-03 -4.2742001703679325e-02 0.0000000000000000e+00  6.6090542033071433e-03 -4.2464633791248978e-02 0.0000000000000000e+00  7.2750022763524262e-03 -4.2187138592082923e-02 0.0000000000000000e+00  7.0580058473401503e-03 -4.2187054420495744e-02 0.0000000000000000e+00  6.8407740695093896e-03 -4.2186966838929162e-02 0.0000000000000000e+00  7.5047041722300801e-03 -4.2462776236065536e-02 0.0000000000000000e+00  7.5467739956526390e-03 -4.2733414280033771e-02 0.0000000000000000e+00  7.6243942520663943e-03 -4.2998143674007852e-02 0.0000000000000000e+00  7.7484232335534430e-03 -4.3266841909214794e-02 0.0000000000000000e+00  7.9294769434787755e-03 -4.3562694666154075e-02 0.0000000000000000e+00  8.1656657157486053e-03 -4.3918516184487146e-02 0.0000000000000000e+00  8.4465059937753207e-03 -4.4358295248119788e-02 0.0000000000000000e+00  8.7511912361576717e-03 -4.4895248038775336e-02 0.0000000000000000e+00  9.0638454085765815e-03 -4.5527440977636530e-02 0.0000000000000000e+00  9.3770710400665463e-03 -4.6246585308882544e-02 0.0000000000000000e+00  9.6978821160035519e-03 -4.7042956714482727e-02 0.0000000000000000e+00  1.0047562411405586e-02 -4.7913072616099096e-02 0.0000000000000000e+00  1.0457022400159067e-02 -4.8859689408480129e-02 0.0000000000000000e+00  1.0955664196808717e-02 -4.9886799375757296e-02 0.0000000000000000e+00  1.1557635559293983e-02 -5.0990128074046258e-02 0.0000000000000000e+00  1.2992621371509437e-02 -5.3282077758191909e-02 0.0000000000000000e+00  1.3740432459125224e-02 -5.4349787271149773e-02 0.0000000000000000e+00  1.4456836254045331e-02 -5.5301875721742777e-02 0.0000000000000000e+00  1.5114031947756387e-02 -5.6110926765265655e-02 0.0000000000000000e+00  1.5687845167507937e-02 -5.6768437341060518e-02 0.0000000000000000e+00  1.6164000484915689e-02 -5.7271196139804276e-02 0.0000000000000000e+00  1.6540223341915194e-02 -5.7608346396216759e-02 0.0000000000000000e+00  1.6828499830401810e-02 -5.7771261975216946e-02 0.0000000000000000e+00  1.7051118506478329e-02 -5.7757576988904984e-02 0.0000000000000000e+00  1.7233493824583078e-02 -5.7577670010414236e-02 0.0000000000000000e+00  1.7397083659946782e-02 -5.7257277731265953e-02 0.0000000000000000e+00  1.7553304277657708e-02 -5.6836923472624402e-02 0.0000000000000000e+00  1.7695722040202026e-02 -5.6357323709473862e-02 0.0000000000000000e+00  1.7811601601697570e-02 -5.5851854970846042e-02 0.0000000000000000e+00  1.7886810316733424e-02 -5.5337393537695005e-02 0.0000000000000000e+00  1.9128807013254159e-02 -5.4822364094832682e-02 0.0000000000000000e+00  1.8724010523572868e-02 -5.4821668629270098e-02 0.0000000000000000e+00  1.8318929071383494e-02 -5.4820969077507636e-02 0.0000000000000000e+00  1.9557280193121637e-02 -5.5337902478372725e-02 0.0000000000000000e+00  1.9633707559723147e-02 -5.5845508222633768e-02 0.0000000000000000e+00  1.9768877666354573e-02 -5.6342359320444346e-02 0.0000000000000000e+00  1.9973601037203366e-02 -5.6835997511568710e-02 0.0000000000000000e+00  2.0258548281947130e-02 -5.7347693604196052e-02 0.0000000000000000e+00  2.0622038078439639e-02 -5.7908645943400276e-02 0.0000000000000000e+00  2.1054102750019472e-02 -5.8541137205228799e-02 0.0000000000000000e+00  2.1535556503705668e-02 -5.9256613591021128e-02 0.0000000000000000e+00  2.2053852638956931e-02 -6.0051840266074616e-02 0.0000000000000000e+00  2.2606837902816163e-02 -6.0918721044256656e-02 0.0000000000000000e+00  2.3207843481030929e-02 -6.1850505626340931e-02 0.0000000000000000e+00  2.3883782573302106e-02 -6.2849609124147776e-02 0.0000000000000000e+00  2.4666165304954479e-02 -6.3929565238146219e-02 0.0000000000000000e+00  2.5572880251393766e-02 -6.5110218988737201e-02 0.0000000000000000e+00  2.6587850381536621e-02 -6.6403559645796181e-02 0.0000000000000000e+00  2.8636501813193611e-02 -6.9224399596135341e-02 0.0000000000000000e+00  2.9488093396781580e-02 -7.0616975098461487e-02 0.0000000000000000e+00  3.0167562531846197e-02 -7.1914771364646454e-02 0.0000000000000000e+00  3.0688347938141205e-02 -7.3076224051131206e-02 0.0000000000000000e+00  3.1084630507381087e-02 -7.4097452896851421e-02 0.0000000000000000e+00  3.1387428077357504e-02 -7.4995551172330713e-02 0.0000000000000000e+00  3.1618886614995373e-02 -7.5790092133556752e-02 0.0000000000000000e+00  3.1792684690973537e-02 -7.6500851044427623e-02 0.0000000000000000e+00  3.1916193352810124e-02 -7.7143012484897411e-02 0.0000000000000000e+00  3.1994827595072099e-02 -7.7725662917282876e-02 0.0000000000000000e+00  3.2032223033231957e-02 -7.8253234081093151e-02 0.0000000000000000e+00  3.2032934664496214e-02 -7.8724094996386787e-02 0.0000000000000000e+00  3.2005394498672707e-02 -7.9134254648236507e-02 0.0000000000000000e+00  3.1959574052346701e-02 -7.9478840906107226e-02 0.0000000000000000e+00  3.1917141128784222e-02 -7.9759813329775428e-02 0.0000000000000000e+00  3.0017827775281225e-02 -8.1845244797856098e-02 0.0000000000000000e+00  3.0234454151706020e-02 -8.1576984838706887e-02 0.0000000000000000e+00  3.0425565192173629e-02 -8.1309919178973261e-02 0.0000000000000000e+00  3.0587759179701607e-02 -8.1052596161378027e-02 0.0000000000000000e+00  3.0722516168436124e-02 -8.0812937997910339e-02 0.0000000000000000e+00  3.0834394621100429e-02 -8.0597077410911114e-02 0.0000000000000000e+00  3.0929912770525422e-02 -8.0409971479128942e-02 0.0000000000000000e+00  3.1017027715484469e-02 -8.0255533754548233e-02 0.0000000000000000e+00  3.1104947120510113e-02 -8.0136588577286130e-02 0.0000000000000000e+00  3.1203863102290376e-02 -8.0054435384002864e-02 0.0000000000000000e+00  3.1325250363428592e-02 -8.0008534107700993e-02 0.0000000000000000e+00  3.1480305586571167e-02 -7.9993178619495856e-02 0.0000000000000000e+00  3.1675793322208483e-02 -7.9997570930849374e-02 0.0000000000000000e+00  6.3345885609134178e-02 -1.7017694502437505e-01 0.0000000000000000e+00  6.3233208162485816e-02 -1.6807492448164082e-01 0.0000000000000000e+00  6.3112359402999835e-02 -1.6595226165293317e-01 0.0000000000000000e+00  6.2977465213234801e-02 -1.6379746663593911e-01 0.0000000000000000e+00  6.2821067663684130e-02 -1.6160628357545551e-01 0.0000000000000000e+00  6.2638173400218933e-02 -1.5937970159861917e-01 0.0000000000000000e+00  6.2425905564668989e-02 -1.5712143491644873e-01 0.0000000000000000e+00  6.2182832840088909e-02 -1.5483716898056396e-01 0.0000000000000000e+00  6.1909865336839780e-02 -1.5253346950197452e-01 0.0000000000000000e+00  6.1609033057454667e-02 -1.5021702837471898e-01 0.0000000000000000e+00  6.1283372169966446e-02 -1.4789417981792768e-01 0.0000000000000000e+00  6.0936286431444581e-02 -1.4557092344800507e-01 0.0000000000000000e+00  6.0571312279098004e-02 -1.4325274322534345e-01 0.0000000000000000e+00  6.0191586505795432e-02 -1.4094466486232135e-01 0.0000000000000000e+00  5.9799529240979858e-02 -1.3865153578006770e-01 0.0000000000000000e+00  5.9396591615267620e-02 -1.3637843418048790e-01 0.0000000000000000e+00  5.8983496392813202e-02 -1.3413080158125434e-01 0.0000000000000000e+00  5.8559551288886097e-02 -1.3191550035392324e-01 0.0000000000000000e+00  5.8123485972237925e-02 -1.2974056593221828e-01 0.0000000000000000e+00  5.7673193181424207e-02 -1.2761632118694133e-01 0.0000000000000000e+00  5.7206089775842982e-02 -1.2555631252689167e-01 0.0000000000000000e+00  5.6719304708157288e-02 -1.2357940422730092e-01 0.0000000000000000e+00  5.6209989601835722e-02 -1.2171774022386964e-01 0.0000000000000000e+00  5.5689811243037748e-02 -1.2003425836895877e-01 0.0000000000000000e+00  5.5179212188079509e-02 -1.1849158031367288e-01 0.0000000000000000e+00  5.4678152262596119e-02 -1.1704827240039752e-01 0.0000000000000000e+00  5.4184763330145234e-02 -1.1568773981076985e-01 0.0000000000000000e+00  5.3698491105912870e-02 -1.1439857407034527e-01 0.0000000000000000e+00  5.3219041111991369e-02 -1.1317245105529486e-01 0.0000000000000000e+00  5.2746998808628147e-02 -1.1200275296758910e-01 0.0000000000000000e+00  5.2283333261188114e-02 -1.1088368182654752e-01 0.0000000000000000e+00  5.1829546835121844e-02 -1.0980989613668005e-01 0.0000000000000000e+00  5.1387474194984628e-02 -1.0877618320775023e-01 0.0000000000000000e+00  5.0958977692277668e-02 -1.0777746768318551e-01 0.0000000000000000e+00  5.0546101004607505e-02 -1.0680843515885184e-01 0.0000000000000000e+00  5.0150557181277818e-02 -1.0586380105974703e-01 0.0000000000000000e+00  4.9773785946827291e-02 -1.0493837300060758e-01 0.0000000000000000e+0