<?xml version="1.0"?>
<VTKFile type="UnstructuredGrid"  version="0.1"  >
<UnstructuredGrid>
<Piece  NumberOfPoints="12853" NumberOfCells="23493">
<Points>
<DataArray  type="Float64"  NumberOfComponents="3"  format="ascii">-3.187178156719634e-14 1.7 0  0 0 0  1.3 3 0  -3.185690647650846e-14 4.300000000000001 0  -3.187178156719634e-14 4.699999999999999 0  1.3 6 0  -3.185690647650846e-14 7.300000000000001 0  -3.187178156719634e-14 7.699999999999999 0  1.3 9 0  -3.185690647650846e-14 10.3 0  -3.187178156719634e-14 10.7 0  1.3 12 0  -3.185690647650846e-14 13.3 0  -3.187178156719634e-14 13.7 0  1.3 15 0  -3.185690647650846e-14 16.3 0  0 18 0  18 18 0  17.99999999999997 16.3 0  17.99999999999997 13.7 0  17.99999999999997 13.3 0  17.99999999999997 10.7 0  17.99999999999997 10.3 0  17.99999999999997 7.7 0  17.99999999999997 7.3 0  17.99999999999997 4.7 0  17.99999999999997 4.3 0  17.99999999999997 1.7 0  18 0 0  4.3 3 0  7.3 3 0  10.3 3 0  4.3 6 0  7.3 6 0  10.3 6 0  13.3 3 0  16.3 3 0  13.3 6 0  16.3 6 0  4.3 9 0  4.3 12 0  7.3 9 0  10.3 9 0  7.3 12 0  10.3 12 0  4.3 15 0  7.3 15 0  10.3 15 0  13.3 9 0  13.3 12 0  16.3 9 0  16.3 12 0  13.3 15 0  16.3 15 0  0 1.578571428571429 0  0 1.457142857142856 0  0 1.335714285714285 0  0 1.214285714285712 0  0 1.092857142857142 0  0 0.9714285714285715 0  0 0.8499999999999979 0  0 0.7285714285714278 0  0 0.6071428571428577 0  0 0.485714285714284 0  0 0.3642857142857139 0  0 0.2428571428571438 0  0 0.1214285714285701 0  0.1274222824284281 1.706259855326144 0  0.2536174186209668 1.7249791354758 0  0.3773700804308007 1.755977563548128 0  0.497488462074617 1.798956607735327 0  0.6128157578737968 1.853502356347138 0  0.7222413029254824 1.919089504006691 0  0.8247112694127393 1.995086410628442 0  0.9192388155425116 2.080761184457488 0  1.004913589371558 2.17528873058726 0  1.080910495993309 2.277758697074517 0  1.146497643652861 2.387184242126203 0  1.201043392264673 2.502511537925383 0  1.244022436451871 2.622629919569199 0  1.275020864524199 2.746382581379033 0  1.293740144673856 2.872577717571571 0  1.293740144673856 3.127422282428428 0  1.2750208645242 3.253617418620966 0  1.244022436451872 3.3773700804308 0  1.201043392264673 3.497488462074616 0  1.146497643652862 3.612815757873796 0  1.08091049599331 3.722241302925481 0  1.00491358937156 3.824711269412738 0  0.9192388155425134 3.91923881554251 0  0.8247112694127412 4.004913589371556 0  0.7222413029254846 4.080910495993308 0  0.6128157578737984 4.146497643652861 0  0.4974884620746181 4.201043392264673 0  0.3773700804308024 4.244022436451871 0  0.2536174186209674 4.275020864524199 0  0.127422282428429 4.293740144673856 0  0 4.6 0  0 4.5 0  0 4.4 0  0.1274222824284281 4.706259855326143 0  0.2536174186209668 4.724979135475801 0  0.3773700804308007 4.755977563548129 0  0.497488462074617 4.798956607735327 0  0.6128157578737968 4.853502356347138 0  0.7222413029254824 4.919089504006691 0  0.8247112694127393 4.995086410628442 0  0.9192388155425116 5.080761184457488 0  1.004913589371558 5.17528873058726 0  1.080910495993309 5.277758697074518 0  1.146497643652861 5.387184242126203 0  1.201043392264673 5.502511537925383 0  1.244022436451871 5.622629919569198 0  1.275020864524199 5.746382581379033 0  1.293740144673856 5.872577717571572 0  1.293740144673856 6.127422282428428 0  1.2750208645242 6.253617418620967 0  1.244022436451872 6.377370080430801 0  1.201043392264673 6.497488462074616 0  1.146497643652862 6.612815757873795 0  1.08091049599331 6.722241302925481 0  1.00491358937156 6.824711269412737 0  0.9192388155425134 6.91923881554251 0  0.8247112694127412 7.004913589371556 0  0.7222413029254846 7.080910495993308 0  0.6128157578737984 7.146497643652861 0  0.4974884620746181 7.201043392264673 0  0.3773700804308024 7.244022436451871 0  0.2536174186209674 7.275020864524199 0  0.127422282428429 7.293740144673856 0  0 7.6 0  0 7.5 0  0 7.4 0  0.1274222824284281 7.706259855326143 0  0.2536174186209668 7.724979135475801 0  0.3773700804308007 7.755977563548129 0  0.497488462074617 7.798956607735327 0  0.6128157578737968 7.853502356347138 0  0.7222413029254824 7.919089504006691 0  0.8247112694127393 7.995086410628442 0  0.9192388155425116 8.080761184457488 0  1.004913589371558 8.17528873058726 0  1.080910495993309 8.277758697074518 0  1.146497643652861 8.387184242126203 0  1.201043392264673 8.502511537925383 0  1.244022436451871 8.622629919569199 0  1.275020864524199 8.746382581379033 0  1.293740144673856 8.872577717571572 0  1.293740144673856 9.127422282428428 0  1.2750208645242 9.253617418620966 0  1.244022436451872 9.377370080430801 0  1.201043392264673 9.497488462074616 0  1.146497643652862 9.612815757873795 0  1.08091049599331 9.722241302925481 0  1.00491358937156 9.824711269412738 0  0.9192388155425134 9.91923881554251 0  0.8247112694127412 10.00491358937156 0  0.7222413029254846 10.08091049599331 0  0.6128157578737984 10.14649764365286 0  0.4974884620746181 10.20104339226467 0  0.3773700804308024 10.24402243645187 0  0.2536174186209674 10.2750208645242 0  0.127422282428429 10.29374014467386 0  0 10.6 0  0 10.5 0  0 10.4 0  0.1274222824284281 10.70625985532614 0  0.2536174186209668 10.7249791354758 0  0.3773700804308007 10.75597756354813 0  0.497488462074617 10.79895660773533 0  0.6128157578737968 10.85350235634714 0  0.7222413029254824 10.91908950400669 0  0.8247112694127393 10.99508641062844 0  0.9192388155425116 11.08076118445749 0  1.004913589371558 11.17528873058726 0  1.080910495993309 11.27775869707452 0  1.146497643652861 11.3871842421262 0  1.201043392264673 11.50251153792538 0  1.244022436451871 11.6226299195692 0  1.275020864524199 11.74638258137903 0  1.293740144673856 11.87257771757157 0  1.293740144673856 12.12742228242843 0  1.2750208645242 12.25361741862097 0  1.244022436451872 12.3773700804308 0  1.201043392264673 12.49748846207462 0  1.146497643652862 12.6128157578738 0  1.08091049599331 12.72224130292548 0  1.00491358937156 12.82471126941274 0  0.9192388155425134 12.91923881554251 0  0.8247112694127412 13.00491358937156 0  0.7222413029254846 13.08091049599331 0  0.6128157578737984 13.14649764365286 0  0.4974884620746181 13.20104339226467 0  0.3773700804308024 13.24402243645187 0  0.2536174186209674 13.2750208645242 0  0.127422282428429 13.29374014467386 0  0 13.6 0  0 13.5 0  0 13.4 0  0.1274222824284281 13.70625985532614 0  0.2536174186209668 13.7249791354758 0  0.3773700804308007 13.75597756354813 0  0.497488462074617 13.79895660773533 0  0.6128157578737968 13.85350235634714 0  0.7222413029254824 13.91908950400669 0  0.8247112694127393 13.99508641062844 0  0.9192388155425116 14.08076118445749 0  1.004913589371558 14.17528873058726 0  1.080910495993309 14.27775869707452 0  1.146497643652861 14.3871842421262 0  1.201043392264673 14.50251153792538 0  1.244022436451871 14.6226299195692 0  1.275020864524199 14.74638258137903 0  1.293740144673856 14.87257771757157 0  1.293740144673856 15.12742228242843 0  1.2750208645242 15.25361741862097 0  1.244022436451872 15.3773700804308 0  1.201043392264673 15.49748846207462 0  1.146497643652862 15.6128157578738 0  1.08091049599331 15.72224130292548 0  1.00491358937156 15.82471126941274 0  0.9192388155425134 15.91923881554251 0  0.8247112694127412 16.00491358937156 0  0.7222413029254846 16.08091049599331 0  0.6128157578737984 16.14649764365286 0  0.4974884620746181 16.20104339226467 0  0.3773700804308024 16.24402243645187 0  0.2536174186209674 16.2750208645242 0  0.127422282428429 16.29374014467385 0  0 17.87857142857143 0  0 17.75714285714286 0  0 17.63571428571429 0  0 17.51428571428571 0  0 17.39285714285714 0  0 17.27142857142857 0  0 17.15 0  0 17.02857142857143 0  0 16.90714285714286 0  0 16.78571428571428 0  0 16.66428571428571 0  0 16.54285714285714 0  0 16.42142857142857 0  17.8705035971223 18 0  17.7410071942446 18 0  17.61151079136691 18 0  17.48201438848921 18 0  17.35251798561151 18 0  17.22302158273381 18 0  17.09352517985612 18 0  16.96402877697842 18 0  16.83453237410072 18 0  16.70503597122302 18 0  16.57553956834532 18 0  16.44604316546762 18 0  16.31654676258993 18 0  16.18705035971223 18 0  16.05755395683453 18 0  15.92805755395683 18 0  15.79856115107913 18 0  15.66906474820144 18 0  15.53956834532374 18 0  15.41007194244604 18 0  15.28057553956834 18 0  15.15107913669064 18 0  15.02158273381295 18 0  14.89208633093525 18 0  14.76258992805755 18 0  14.63309352517985 18 0  14.50359712230215 18 0  14.37410071942446 18 0  14.24460431654676 18 0  14.11510791366906 18 0  13.98561151079136 18 0  13.85611510791366 18 0  13.72661870503597 18 0  13.59712230215827 18 0  13.46762589928057 18 0  13.33812949640287 18 0  13.20863309352517 18 0  13.07913669064748 18 0  12.94964028776977 18 0  12.82014388489208 18 0  12.69064748201438 18 0  12.56115107913668 18 0  12.43165467625898 18 0  12.30215827338128 18 0  12.17266187050359 18 0  12.04316546762589 18 0  11.91366906474819 18 0  11.78417266187049 18 0  11.65467625899279 18 0  11.52517985611509 18 0  11.3956834532374 18 0  11.2661870503597 18 0  11.136690647482 18 0  11.0071942446043 18 0  10.8776978417266 18 0  10.7482014388489 18 0  10.6187050359712 18 0  10.48920863309351 18 0  10.35971223021581 18 0  10.23021582733811 18 0  10.10071942446041 18 0  9.971223021582714 18 0  9.841726618705016 18 0  9.712230215827317 18 0  9.582733812949618 18 0  9.453237410071921 18 0  9.323741007194224 18 0  9.194244604316525 18 0  9.064748201438828 18 0  8.935251798561131 18 0  8.805755395683434 18 0  8.676258992805735 18 0  8.546762589928038 18 0  8.417266187050341 18 0  8.287769784172642 18 0  8.158273381294947 18 0  8.028776978417248 18 0  7.899280575539549 18 0  7.769784172661854 18 0  7.640287769784155 18 0  7.510791366906458 18 0  7.381294964028761 18 0  7.251798561151062 18 0  7.122302158273365 18 0  6.992805755395668 18 0  6.86330935251797 18 0  6.733812949640273 18 0  6.604316546762576 18 0  6.474820143884878 18 0  6.34532374100718 18 0  6.215827338129483 18 0  6.086330935251786 18 0  5.956834532374087 18 0  5.827338129496392 18 0  5.697
[...]
<PointData  Vectors="f_21"> 
<DataArray  type="Float64"  Name="f_21"  NumberOfComponents="3" format="ascii">-2.4060775742544447e-03 -1.7983071540420745e-03 0.0000000000000000e+00  0.0000000000000000e+00 0.0000000000000000e+00 0.0000000000000000e+00  -4.2686909745259108e-03 -1.5809293839619057e-02 0.0000000000000000e+00  -6.1467124532459489e-03 -2.7651614552555787e-02 0.0000000000000000e+00  -6.1352684665357989e-03 -2.7651311592526501e-02 0.0000000000000000e+00  -3.8402585673522681e-03 -3.9329900543958581e-02 0.0000000000000000e+00  1.9178166651737284e-04 -4.7414760276384298e-02 0.0000000000000000e+00  1.5032440986097215e-03 -4.7416488391507847e-02 0.0000000000000000e+00  8.2157618732980574e-03 -6.3749269874905257e-02 0.0000000000000000e+00  1.4159563639401844e-02 -7.1589298118636485e-02 0.0000000000000000e+00  1.5793104150624397e-02 -7.1592192953795153e-02 0.0000000000000000e+00  2.4660767718372612e-02 -8.9057537187616748e-02 0.0000000000000000e+00  3.5501698692912517e-02 -9.2794218875602547e-02 0.0000000000000000e+00  3.8576852294003462e-02 -9.2805720483597240e-02 0.0000000000000000e+00  5.3703133152914542e-02 -1.1608701897676249e-01 0.0000000000000000e+00  6.1547559914596268e-02 -1.3722509338186351e-01 0.0000000000000000e+00  5.8087080125836056e-02 -1.4087865466920182e-01 0.0000000000000000e+00  1.1699635239722252e-01 -3.0236756196527714e-01 0.0000000000000000e+00  6.4035658098511514e-02 -2.9771681544511092e-01 0.0000000000000000e+00  5.2869125921685807e-02 -1.9594446907360558e-01 0.0000000000000000e+00  5.2483053478212804e-02 -1.9594452231302217e-01 0.0000000000000000e+00  4.2076922066373791e-02 -1.6048235577514156e-01 0.0000000000000000e+00  3.8180232884908356e-02 -1.6046433681242131e-01 0.0000000000000000e+00  2.6766051066551565e-02 -1.0345810656016555e-01 0.0000000000000000e+00  2.5461056083676006e-02 -1.0345676071468886e-01 0.0000000000000000e+00  1.7264479871625337e-02 -5.9400188528774260e-02 0.0000000000000000e+00  1.5350953563074001e-02 -5.9396328398457529e-02 0.0000000000000000e+00  4.0937589510694700e-03 -3.2147978338311935e-03 0.0000000000000000e+00  0.0000000000000000e+00 0.0000000000000000e+00 0.0000000000000000e+00  -2.4546429127363686e-03 -1.6007296167014115e-02 0.0000000000000000e+00  -1.0666203142450953e-03 -1.6173708063348505e-02 0.0000000000000000e+00  -6.7596831038361008e-04 -1.8021980228193259e-02 0.0000000000000000e+00  9.0574636241799852e-04 -4.0842306354300667e-02 0.0000000000000000e+00  3.2780077462990550e-03 -4.2129096869670167e-02 0.0000000000000000e+00  6.7690125686936638e-03 -4.7625135091339199e-02 0.0000000000000000e+00  8.4552111216627996e-04 -2.1776246207825246e-02 0.0000000000000000e+00  3.1585461436983986e-03 -2.8094172420960926e-02 0.0000000000000000e+00  8.6238815009126359e-03 -5.8949213621439130e-02 0.0000000000000000e+00  1.6739156573775144e-02 -7.4934379543802457e-02 0.0000000000000000e+00  1.1194166445261496e-02 -6.6241549633684921e-02 0.0000000000000000e+00  3.0028437871283523e-02 -9.1530854425931840e-02 0.0000000000000000e+00  1.5318562440991645e-02 -6.7993965565578046e-02 0.0000000000000000e+00  1.6793828926266338e-02 -7.7152748923669315e-02 0.0000000000000000e+00  3.0963426489041702e-02 -9.3302542439152508e-02 0.0000000000000000e+00  3.4672049822023605e-02 -1.0593440431262689e-01 0.0000000000000000e+00  5.5224370601965993e-02 -1.1677061274049283e-01 0.0000000000000000e+00  5.7902841397886665e-02 -1.1711928808154845e-01 0.0000000000000000e+00  5.5072004208928188e-02 -1.3306454785761454e-01 0.0000000000000000e+00  2.2730470100684901e-02 -9.5172385232079118e-02 0.0000000000000000e+00  3.2404702674721543e-02 -1.3134193092333621e-01 0.0000000000000000e+00  2.3632599713562904e-02 -1.2175270944513153e-01 0.0000000000000000e+00  4.6105960305214688e-02 -1.6981228498076678e-01 0.0000000000000000e+00  5.7167107231672974e-02 -1.6393778849196267e-01 0.0000000000000000e+00  3.9540196292374805e-02 -2.2137048750096336e-01 0.0000000000000000e+00  -2.4803345293433750e-03 -1.8024622518176814e-03 0.0000000000000000e+00  -2.5346411786826913e-03 -1.8177878868052481e-03 0.0000000000000000e+00  -2.5470108700922155e-03 -1.8302714848943333e-03 0.0000000000000000e+00  -2.5131238985467430e-03 -1.8286225196919848e-03 0.0000000000000000e+00  -2.4354253371976936e-03 -1.8051557909602191e-03 0.0000000000000000e+00  -2.3182810400937232e-03 -1.7564810977444749e-03 0.0000000000000000e+00  -2.1655299513649619e-03 -1.6815018690827881e-03 0.0000000000000000e+00  -1.9800507034753181e-03 -1.5794467332241723e-03 0.0000000000000000e+00  -1.7632433171781751e-03 -1.4493717618568470e-03 0.0000000000000000e+00  -1.5149728656806420e-03 -1.2889899582279563e-03 0.0000000000000000e+00  -1.2332265733109142e-03 -1.0936170170318914e-03 0.0000000000000000e+00  -9.1305073444715912e-04 -8.5300247408001640e-04 0.0000000000000000e+00  -5.3423496650304195e-04 -5.4268820628626687e-04 0.0000000000000000e+00  -2.3967999207743684e-03 -1.8736335508833129e-03 0.0000000000000000e+00  -2.3629566731011588e-03 -1.9773594009376977e-03 0.0000000000000000e+00  -2.3140870353463897e-03 -2.1503121647530872e-03 0.0000000000000000e+00  -2.2689508906616851e-03 -2.4168231115266198e-03 0.0000000000000000e+00  -2.2374277776321043e-03 -2.7884406880818264e-03 0.0000000000000000e+00  -2.2316890749397673e-03 -3.2734297579522071e-03 0.0000000000000000e+00  -2.2607284444486684e-03 -3.8761529724181563e-03 0.0000000000000000e+00  -2.3298587773000036e-03 -4.6015975577977809e-03 0.0000000000000000e+00  -2.4440809331826622e-03 -5.4556401791572666e-03 0.0000000000000000e+00  -2.6036062967438114e-03 -6.4476887299017675e-03 0.0000000000000000e+00  -2.8067478803814609e-03 -7.5916275890825988e-03 0.0000000000000000e+00  -3.0487141971466819e-03 -8.9028911910700934e-03 0.0000000000000000e+00  -3.3235428127276210e-03 -1.0398259189890362e-02 0.0000000000000000e+00  -3.6261458124379770e-03 -1.2076961712104671e-02 0.0000000000000000e+00  -3.9479012472617304e-03 -1.3901005929394649e-02 0.0000000000000000e+00  -4.5519437220326213e-03 -1.7691340266526176e-02 0.0000000000000000e+00  -4.7699462663443638e-03 -1.9461924109031952e-02 0.0000000000000000e+00  -4.9121904504454347e-03 -2.1073523827210585e-02 0.0000000000000000e+00  -4.9956055019452512e-03 -2.2509418723072099e-02 0.0000000000000000e+00  -5.0602142204384925e-03 -2.3775240789140433e-02 0.0000000000000000e+00  -5.1443785824625493e-03 -2.4874384232500938e-02 0.0000000000000000e+00  -5.2718295908839611e-03 -2.5799026722093422e-02 0.0000000000000000e+00  -5.4422245881427115e-03 -2.6535415891640813e-02 0.0000000000000000e+00  -5.6385286501983165e-03 -2.7074053173801307e-02 0.0000000000000000e+00  -5.8288073795889576e-03 -2.7420401792602807e-02 0.0000000000000000e+00  -5.9821383443602501e-03 -2.7602757371380425e-02 0.0000000000000000e+00  -6.0808527914172975e-03 -2.7670134988087243e-02 0.0000000000000000e+00  -6.1295057534460273e-03 -2.7676693682839058e-02 0.0000000000000000e+00  -6.1451053431672278e-03 -2.7666472010196071e-02 0.0000000000000000e+00  -6.1471411274903222e-03 -2.7657334059577689e-02 0.0000000000000000e+00  -6.1371750656353634e-03 -2.7651271841526128e-02 0.0000000000000000e+00  -6.1398176560181553e-03 -2.7651465121613983e-02 0.0000000000000000e+00  -6.1428920424232451e-03 -2.7651655758851451e-02 0.0000000000000000e+00  -6.1353301433947913e-03 -2.7652888067025424e-02 0.0000000000000000e+00  -6.1322408869000202e-03 -2.7650970131854757e-02 0.0000000000000000e+00  -6.1147850772874631e-03 -2.7647489604985788e-02 0.0000000000000000e+00  -6.0642326761255454e-03 -2.7661656224757511e-02 0.0000000000000000e+00  -5.9612227266471933e-03 -2.7734578355067162e-02 0.0000000000000000e+00  -5.8057558061375310e-03 -2.7923933063874581e-02 0.0000000000000000e+00  -5.6111075008397843e-03 -2.8274616127336925e-02 0.0000000000000000e+00  -5.4102812043364994e-03 -2.8816851594848137e-02 0.0000000000000000e+00  -5.2330395087867515e-03 -2.9554361039344904e-02 0.0000000000000000e+00  -5.0971858645055667e-03 -3.0476434290804412e-02 0.0000000000000000e+00  -4.9999724062916194e-03 -3.1568477114896208e-02 0.0000000000000000e+00  -4.9133283017803193e-03 -3.2818371747002105e-02 0.0000000000000000e+00  -4.7937557273338132e-03 -3.4230082062800073e-02 0.0000000000000000e+00  -4.5907269561881979e-03 -3.5800974870805302e-02 0.0000000000000000e+00  -4.2734108780511050e-03 -3.7519596295344605e-02 0.0000000000000000e+00  -3.3171468356013533e-03 -4.1146256065878975e-02 0.0000000000000000e+00  -2.7462047705924409e-03 -4.2868640863931759e-02 0.0000000000000000e+00  -2.1673437601024779e-03 -4.4433289480354229e-02 0.0000000000000000e+00  -1.6208119562501841e-03 -4.5802876020053541e-02 0.0000000000000000e+00  -1.1442517183916348e-03 -4.6973769551568186e-02 0.0000000000000000e+00  -7.6812716864304155e-04 -4.7938579385735008e-02 0.0000000000000000e+00  -5.0387916322441775e-04 -4.8684328328020450e-02 0.0000000000000000e+00  -3.3945433765092365e-04 -4.9196649832725120e-02 0.0000000000000000e+00  -2.4887142071176703e-04 -4.9467780420163282e-02 0.0000000000000000e+00  -1.9322351264832545e-04 -4.9506966237152505e-02 0.0000000000000000e+00  -1.3752667831259794e-04 -4.9348312520897650e-02 0.0000000000000000e+00  -6.2617901214921185e-05 -4.9047651028908137e-02 0.0000000000000000e+00  2.6390791958713252e-05 -4.8666020910406005e-02 0.0000000000000000e+00  1.1112398409803273e-04 -4.8253979487154597e-02 0.0000000000000000e+00  1.7032896522548179e-04 -4.7834642873894440e-02 0.0000000000000000e+00  1.1763315135606496e-03 -4.7415920296730363e-02 0.0000000000000000e+00  8.4866392623716936e-04 -4.7415630305804431e-02 0.0000000000000000e+00  5.2060492244460077e-04 -4.7415336190627100e-02 0.0000000000000000e+00  1.5228625602285392e-03 -4.7832157284858810e-02 0.0000000000000000e+00  1.5864166415498937e-03 -4.8240344553240118e-02 0.0000000000000000e+00  1.7050697763666203e-03 -4.8639555733170643e-02 0.0000000000000000e+00  1.8969180824966903e-03 -4.9046599586179185e-02 0.0000000000000000e+00  2.1796175177081303e-03 -4.9500787263430636e-02 0.0000000000000000e+00  2.5497548434287262e-03 -5.0057343622032548e-02 0.0000000000000000e+00  2.9903743494262922e-03 -5.0756867691581081e-02 0.0000000000000000e+00  3.4658220526030052e-03 -5.1623955835494888e-02 0.0000000000000000e+00  3.9461462312633533e-03 -5.2657067742455141e-02 0.0000000000000000e+00  4.4153680477794057e-03 -5.3842363243344106e-02 0.0000000000000000e+00  4.8788445402952914e-03 -5.5164979376931829e-02 0.0000000000000000e+00  5.3653894002446715e-03 -5.6616435543215694e-02 0.0000000000000000e+00  5.9161169459093438e-03 -5.8205127467465680e-02 0.0000000000000000e+00  6.5714441344144319e-03 -5.9935025420759153e-02 0.0000000000000000e+00  7.3460637249758822e-03 -6.1800311428812392e-02 0.0000000000000000e+00  9.1278282969953928e-03 -6.5695775802775955e-02 0.0000000000000000e+00  1.0022805453782833e-02 -6.7528617046361997e-02 0.0000000000000000e+00  1.0861104318672470e-02 -6.9185251937924769e-02 0.0000000000000000e+00  1.1612601217732782e-02 -7.0625005476345690e-02 0.0000000000000000e+00  1.2247498120158852e-02 -7.1838506736376831e-02 0.0000000000000000e+00  1.2746783081764591e-02 -7.2824245228145540e-02 0.0000000000000000e+00  1.3107332781869601e-02 -7.3567403541830834e-02 0.0000000000000000e+00  1.3347081753832035e-02 -7.4054125640763233e-02 0.0000000000000000e+00  1.3500795185213717e-02 -7.4278206608617184e-02 0.0000000000000000e+00  1.3609901390712949e-02 -7.4252167719862219e-02 0.0000000000000000e+00  1.3711272139550397e-02 -7.4012988734537946e-02 0.0000000000000000e+00  1.3826747182271615e-02 -7.3622704223106419e-02 0.0000000000000000e+00  1.3948663152849681e-02 -7.3145101086473943e-02 0.0000000000000000e+00  1.4058100473237765e-02 -7.2632934989435807e-02 0.0000000000000000e+00  1.4132688399311061e-02 -7.2111831983848046e-02 0.0000000000000000e+00  1.5385703938277437e-02 -7.1591329584648533e-02 0.0000000000000000e+00  1.4977523567015092e-02 -7.1590754003591592e-02 0.0000000000000000e+00  1.4568935225656303e-02 -7.1590171766342345e-02 0.0000000000000000e+00  1.5817381537335869e-02 -7.2110410770376290e-02 0.0000000000000000e+00  1.5895742481718132e-02 -7.2620094515177383e-02 0.0000000000000000e+00  1.6039530896374523e-02 -7.3118819446563926e-02 0.0000000000000000e+00  1.6267274777086723e-02 -7.3623139416055222e-02 0.0000000000000000e+00  1.6597000147628906e-02 -7.4172467040763856e-02 0.0000000000000000e+00  1.7025209202633444e-02 -7.4822641385120625e-02 0.0000000000000000e+00  1.7533713047366496e-02 -7.5614206625215799e-02 0.0000000000000000e+00  1.8086895439013203e-02 -7.6568992120800011e-02 0.0000000000000000e+00  1.8658048578015233e-02 -7.7682724884267806e-02 0.0000000000000000e+00  1.9235575676715255e-02 -7.8940182135141312e-02 0.0000000000000000e+00  1.9833319637839290e-02 -8.0323796305012060e-02 0.0000000000000000e+00  2.0490431223765902e-02 -8.1826807879326960e-02 0.0000000000000000e+00  2.1263608494864198e-02 -8.3453557902607944e-02 0.0000000000000000e+00  2.2207303157813923e-02 -8.5211912126156197e-02 0.0000000000000000e+00  2.3348282547576170e-02 -8.7096029796297353e-02 0.0000000000000000e+00  2.6071685089278276e-02 -9.1009346389819876e-02 0.0000000000000000e+00  2.7488792712413616e-02 -9.2832849871667567e-02 0.0000000000000000e+00  2.8843016025589793e-02 -9.4456343807946194e-02 0.0000000000000000e+00  3.0083020344816927e-02 -9.5829386973387887e-02 0.0000000000000000e+00  3.1166677595334834e-02 -9.6934692535211600e-02 0.0000000000000000e+00  3.2070605074624475e-02 -9.7765080398859908e-02 0.0000000000000000e+00  3.2792637770603289e-02 -9.8300620570020064e-02 0.0000000000000000e+00  3.3355180612548628e-02 -9.8526317187771426e-02 0.0000000000000000e+00  3.3797943019308239e-02 -9.8438790812144669e-02 0.0000000000000000e+00  3.4165285445809768e-02 -9.8057311290072557e-02 0.0000000000000000e+00  3.4494049673965049e-02 -9.7427876568486144e-02 0.0000000000000000e+00  3.4803240193839902e-02 -9.6621811945573177e-02 0.0000000000000000e+00  3.5080967651468835e-02 -9.5710351845296499e-02 0.0000000000000000e+00  3.5304633061902221e-02 -9.4751805712401854e-02 0.0000000000000000e+00  3.5449512466400199e-02 -9.3775955794048876e-02 0.0000000000000000e+00  3.7809138574240550e-02 -9.2802728953893521e-02 0.0000000000000000e+00  3.7040599942052790e-02 -9.2799983521735060e-02 0.0000000000000000e+00  3.6271562676271407e-02 -9.2797229200166378e-02 0.0000000000000000e+00  3.8620958368507451e-02 -9.3783201399864333e-02 0.0000000000000000e+00  3.8764003280817153e-02 -9.4747787205958306e-02 0.0000000000000000e+00  3.9017010968443712e-02 -9.5692295709316866e-02 0.0000000000000000e+00  3.9398366345961666e-02 -9.6628863663714135e-02 0.0000000000000000e+00  3.9926077270165422e-02 -9.7593283976807055e-02 0.0000000000000000e+00  4.0596836218689959e-02 -9.8638313527261920e-02 0.0000000000000000e+00  4.1393194889164202e-02 -9.9801228291265781e-02 0.0000000000000000e+00  4.2282286352286369e-02 -1.0110045951032438e-01 0.0000000000000000e+00  4.3243295876002050e-02 -1.0252924075858051e-01 0.0000000000000000e+00  4.4274003149350559e-02 -1.0407270741899645e-01 0.0000000000000000e+00  4.5399490327609829e-02 -1.0571895819729477e-01 0.0000000000000000e+00  4.6668633601918530e-02 -1.0747256438287051e-01 0.0000000000000000e+00  4.8137977506321317e-02 -1.0935857805167588e-01 0.0000000000000000e+00  4.9838383993471236e-02 -1.1141509019185200e-01 0.0000000000000000e+00  5.1737502525997375e-02 -1.1366670054171010e-01 0.0000000000000000e+00  5.5549868951685490e-02 -1.1859025045006114e-01 0.0000000000000000e+00  5.7121292461138597e-02 -1.2102484168190193e-01 0.0000000000000000e+00  5.8366628127532773e-02 -1.2329322102778699e-01 0.0000000000000000e+00  5.9314971017141928e-02 -1.2531991484313143e-01 0.0000000000000000e+00  6.0032974005411230e-02 -1.2709757152287210e-01 0.0000000000000000e+00  6.0579979000467563e-02 -1.2865659177527594e-01 0.0000000000000000e+00  6.0997966456124798e-02 -1.3003181189689311e-01 0.0000000000000000e+00  6.1312673370153468e-02 -1.3125843852104346e-01 0.0000000000000000e+00  6.1537941120681595e-02 -1.3236355481918929e-01 0.0000000000000000e+00  6.1683735600998012e-02 -1.3336346562850193e-01 0.0000000000000000e+00  6.1756575086742024e-02 -1.3426629941170898e-01 0.0000000000000000e+00  6.1764456297212382e-02 -1.3506957959930052e-01 0.0000000000000000e+00  6.1722001092359556e-02 -1.3576669819704285e-01 0.0000000000000000e+00  6.1646432973584374e-02 -1.3634948102246852e-01 0.0000000000000000e+00  6.1575303617317917e-02 -1.3682159694657645e-01 0.0000000000000000e+00  5.8474529034261730e-02 -1.4042284800690963e-01 0.0000000000000000e+00  5.8836216873113481e-02 -1.3995734591773659e-01 0.0000000000000000e+00  5.9153079172910204e-02 -1.3949397771947183e-01 0.0000000000000000e+00  5.9419474746088476e-02 -1.3904759016187138e-01 0.0000000000000000e+00  5.9638109623256955e-02 -1.3863192980939806e-01 0.0000000000000000e+00  5.9816984680343306e-02 -1.3825762535077127e-01 0.0000000000000000e+00  5.9967476412604137e-02 -1.3793326213067444e-01 0.0000000000000000e+00  6.0103442869282410e-02 -1.3766561174477909e-01 0.0000000000000000e+00  6.0240902044735103e-02 -1.3745954865304075e-01 0.0000000000000000e+00  6.0397567791717489e-02 -1.3731729913278898e-01 0.0000000000000000e+00  6.0593366270564261e-02 -1.3723787786640274e-01 0.0000000000000000e+00  6.0847704974584804e-02 -1.3721132629373683e-01 0.0000000000000000e+00  6.1172250008567609e-02 -1.3721886432002567e-01 0.0000000000000000e+00  1.1683327935036386e-01 -2.9849484210309996e-01 0.0000000000000000e+00  1.1665643002331280e-01 -2.9464351791912141e-01 0.0000000000000000e+00  1.1646521588549451e-01 -2.9076277239103726e-01 0.0000000000000000e+00  1.1624889588107162e-01 -2.8682978443530394e-01 0.0000000000000000e+00  1.1599380276682358e-01 -2.8283591726755136e-01 0.0000000000000000e+00  1.1569053757289903e-01 -2.7878247456185401e-01 0.0000000000000000e+00  1.1533347569770308e-01 -2.7467588335227222e-01 0.0000000000000000e+00  1.1491951611205892e-01 -2.7052629481484713e-01 0.0000000000000000e+00  1.1444977835558719e-01 -2.6634559813770969e-01 0.0000000000000000e+00  1.1392743433729129e-01 -2.6214604064379737e-01 0.0000000000000000e+00  1.1335753384108048e-01 -2.5793932432825023e-01 0.0000000000000000e+00  1.1274589278407507e-01 -2.5373664838312404e-01 0.0000000000000000e+00  1.1209869678630088e-01 -2.4954833558879988e-01 0.0000000000000000e+00  1.1142157278622269e-01 -2.4538389978049091e-01 0.0000000000000000e+00  1.1071901232763937e-01 -2.4125249770335230e-01 0.0000000000000000e+00  1.0999398593038096e-01 -2.3716363006090968e-01 0.0000000000000000e+00  1.0924818123129321e-01 -2.3312730113419350e-01 0.0000000000000000e+00  1.0848108816939540e-01 -2.2915587992534428e-01 0.0000000000000000e+00  1.0769110092504861e-01 -2.2526362439329800e-01 0.0000000000000000e+00  1.0687526971651817e-01 -2.2146857164764386e-01 0.0000000000000000e+00  1.0602982650443173e-01 -2.1779417882503721e-01 0.0000000000000000e+00  1.0515049242566676e-01 -2.1427293358027280e-01 0.0000000000000000e+00  1.0423300279735249e-01 -2.1096009087774964e-01 0.0000000000000000e+00  1.0329791263429161e-01 -2.0796402271732556e-01 0.0000000000000000e+00  1.0238081253164850e-01 -2.0521950808190390e-01 0.0000000000000000e+00  1.0148192087193640e-01 -2.0265424412619804e-01 0.0000000000000000e+00  1.0059825797896652e-01 -2.0023882429854745e-01 0.0000000000000000e+00  9.9728989588447448e-02 -1.9795277305378223e-01 0.0000000000000000e+00  9.8873602096180707e-02 -1.9578095568334017e-01 0.0000000000000000e+00  9.8033060624472299e-02 -1.9371125215346141e-01 0.0000000000000000e+00  9.7208886348086138e-02 -1.9173301917999053e-01 0.0000000000000000e+00  9.6403495807830600e-02 -1.8983649779627731e-01 0.0000000000000000e+00  9.5619825001527367e-02 -1.8801223961628399e-01 0.0000000000000000e+00  9.4860909135294214e-02 -1.8625114969953438e-01 0.0000000000000000e+00  9.4130060085868925e-02 -1.8454379356153960e-01 0.0000000000000000e+00  9.3430043152124220e-02 -1.8288087190070876e-01 0.0000000000000000e+00  9.2763229068590344e-02 -1.8125331016451429e-01 0.0000000000000000e+00  9.21