<?xml version="1.0"?>
<VTKFile type="UnstructuredGrid"  version="0.1"  >
<UnstructuredGrid>
<Piece  NumberOfPoints="12853" NumberOfCells="23493">
<Points>
<DataArray  type="Float64"  NumberOfComponents="3"  format="ascii">-3.187178156719634e-14 1.7 0  0 0 0  1.3 3 0  -3.185690647650846e-14 4.300000000000001 0  -3.187178156719634e-14 4.699999999999999 0  1.3 6 0  -3.185690647650846e-14 7.300000000000001 0  -3.187178156719634e-14 7.699999999999999 0  1.3 9 0  -3.185690647650846e-14 10.3 0  -3.187178156719634e-14 10.7 0  1.3 12 0  -3.185690647650846e-14 13.3 0  -3.187178156719634e-14 13.7 0  1.3 15 0  -3.185690647650846e-14 16.3 0  0 18 0  18 18 0  17.99999999999997 16.3 0  17.99999999999997 13.7 0  17.99999999999997 13.3 0  17.99999999999997 10.7 0  17.99999999999997 10.3 0  17.99999999999997 7.7 0  17.99999999999997 7.3 0  17.99999999999997 4.7 0  17.99999999999997 4.3 0  17.99999999999997 1.7 0  18 0 0  4.3 3 0  7.3 3 0  10.3 3 0  4.3 6 0  7.3 6 0  10.3 6 0  13.3 3 0  16.3 3 0  13.3 6 0  16.3 6 0  4.3 9 0  4.3 12 0  7.3 9 0  10.3 9 0  7.3 12 0  10.3 12 0  4.3 15 0  7.3 15 0  10.3 15 0  13.3 9 0  13.3 12 0  16.3 9 0  16.3 12 0  13.3 15 0  16.3 15 0  0 1.578571428571429 0  0 1.457142857142856 0  0 1.335714285714285 0  0 1.214285714285712 0  0 1.092857142857142 0  0 0.9714285714285715 0  0 0.8499999999999979 0  0 0.7285714285714278 0  0 0.6071428571428577 0  0 0.485714285714284 0  0 0.3642857142857139 0  0 0.2428571428571438 0  0 0.1214285714285701 0  0.1274222824284281 1.706259855326144 0  0.2536174186209668 1.7249791354758 0  0.3773700804308007 1.755977563548128 0  0.497488462074617 1.798956607735327 0  0.6128157578737968 1.853502356347138 0  0.7222413029254824 1.919089504006691 0  0.8247112694127393 1.995086410628442 0  0.9192388155425116 2.080761184457488 0  1.004913589371558 2.17528873058726 0  1.080910495993309 2.277758697074517 0  1.146497643652861 2.387184242126203 0  1.201043392264673 2.502511537925383 0  1.244022436451871 2.622629919569199 0  1.275020864524199 2.746382581379033 0  1.293740144673856 2.872577717571571 0  1.293740144673856 3.127422282428428 0  1.2750208645242 3.253617418620966 0  1.244022436451872 3.3773700804308 0  1.201043392264673 3.497488462074616 0  1.146497643652862 3.612815757873796 0  1.08091049599331 3.722241302925481 0  1.00491358937156 3.824711269412738 0  0.9192388155425134 3.91923881554251 0  0.8247112694127412 4.004913589371556 0  0.7222413029254846 4.080910495993308 0  0.6128157578737984 4.146497643652861 0  0.4974884620746181 4.201043392264673 0  0.3773700804308024 4.244022436451871 0  0.2536174186209674 4.275020864524199 0  0.127422282428429 4.293740144673856 0  0 4.6 0  0 4.5 0  0 4.4 0  0.1274222824284281 4.706259855326143 0  0.2536174186209668 4.724979135475801 0  0.3773700804308007 4.755977563548129 0  0.497488462074617 4.798956607735327 0  0.6128157578737968 4.853502356347138 0  0.7222413029254824 4.919089504006691 0  0.8247112694127393 4.995086410628442 0  0.9192388155425116 5.080761184457488 0  1.004913589371558 5.17528873058726 0  1.080910495993309 5.277758697074518 0  1.146497643652861 5.387184242126203 0  1.201043392264673 5.502511537925383 0  1.244022436451871 5.622629919569198 0  1.275020864524199 5.746382581379033 0  1.293740144673856 5.872577717571572 0  1.293740144673856 6.127422282428428 0  1.2750208645242 6.253617418620967 0  1.244022436451872 6.377370080430801 0  1.201043392264673 6.497488462074616 0  1.146497643652862 6.612815757873795 0  1.08091049599331 6.722241302925481 0  1.00491358937156 6.824711269412737 0  0.9192388155425134 6.91923881554251 0  0.8247112694127412 7.004913589371556 0  0.7222413029254846 7.080910495993308 0  0.6128157578737984 7.146497643652861 0  0.4974884620746181 7.201043392264673 0  0.3773700804308024 7.244022436451871 0  0.2536174186209674 7.275020864524199 0  0.127422282428429 7.293740144673856 0  0 7.6 0  0 7.5 0  0 7.4 0  0.1274222824284281 7.706259855326143 0  0.2536174186209668 7.724979135475801 0  0.3773700804308007 7.755977563548129 0  0.497488462074617 7.798956607735327 0  0.6128157578737968 7.853502356347138 0  0.7222413029254824 7.919089504006691 0  0.8247112694127393 7.995086410628442 0  0.9192388155425116 8.080761184457488 0  1.004913589371558 8.17528873058726 0  1.080910495993309 8.277758697074518 0  1.146497643652861 8.387184242126203 0  1.201043392264673 8.502511537925383 0  1.244022436451871 8.622629919569199 0  1.275020864524199 8.746382581379033 0  1.293740144673856 8.872577717571572 0  1.293740144673856 9.127422282428428 0  1.2750208645242 9.253617418620966 0  1.244022436451872 9.377370080430801 0  1.201043392264673 9.497488462074616 0  1.146497643652862 9.612815757873795 0  1.08091049599331 9.722241302925481 0  1.00491358937156 9.824711269412738 0  0.9192388155425134 9.91923881554251 0  0.8247112694127412 10.00491358937156 0  0.7222413029254846 10.08091049599331 0  0.6128157578737984 10.14649764365286 0  0.4974884620746181 10.20104339226467 0  0.3773700804308024 10.24402243645187 0  0.2536174186209674 10.2750208645242 0  0.127422282428429 10.29374014467386 0  0 10.6 0  0 10.5 0  0 10.4 0  0.1274222824284281 10.70625985532614 0  0.2536174186209668 10.7249791354758 0  0.3773700804308007 10.75597756354813 0  0.497488462074617 10.79895660773533 0  0.6128157578737968 10.85350235634714 0  0.7222413029254824 10.91908950400669 0  0.8247112694127393 10.99508641062844 0  0.9192388155425116 11.08076118445749 0  1.004913589371558 11.17528873058726 0  1.080910495993309 11.27775869707452 0  1.146497643652861 11.3871842421262 0  1.201043392264673 11.50251153792538 0  1.244022436451871 11.6226299195692 0  1.275020864524199 11.74638258137903 0  1.293740144673856 11.87257771757157 0  1.293740144673856 12.12742228242843 0  1.2750208645242 12.25361741862097 0  1.244022436451872 12.3773700804308 0  1.201043392264673 12.49748846207462 0  1.146497643652862 12.6128157578738 0  1.08091049599331 12.72224130292548 0  1.00491358937156 12.82471126941274 0  0.9192388155425134 12.91923881554251 0  0.8247112694127412 13.00491358937156 0  0.7222413029254846 13.08091049599331 0  0.6128157578737984 13.14649764365286 0  0.4974884620746181 13.20104339226467 0  0.3773700804308024 13.24402243645187 0  0.2536174186209674 13.2750208645242 0  0.127422282428429 13.29374014467386 0  0 13.6 0  0 13.5 0  0 13.4 0  0.1274222824284281 13.70625985532614 0  0.2536174186209668 13.7249791354758 0  0.3773700804308007 13.75597756354813 0  0.497488462074617 13.79895660773533 0  0.6128157578737968 13.85350235634714 0  0.7222413029254824 13.91908950400669 0  0.8247112694127393 13.99508641062844 0  0.9192388155425116 14.08076118445749 0  1.004913589371558 14.17528873058726 0  1.080910495993309 14.27775869707452 0  1.146497643652861 14.3871842421262 0  1.201043392264673 14.50251153792538 0  1.244022436451871 14.6226299195692 0  1.275020864524199 14.74638258137903 0  1.293740144673856 14.87257771757157 0  1.293740144673856 15.12742228242843 0  1.2750208645242 15.25361741862097 0  1.244022436451872 15.3773700804308 0  1.201043392264673 15.49748846207462 0  1.146497643652862 15.6128157578738 0  1.08091049599331 15.72224130292548 0  1.00491358937156 15.82471126941274 0  0.9192388155425134 15.91923881554251 0  0.8247112694127412 16.00491358937156 0  0.7222413029254846 16.08091049599331 0  0.6128157578737984 16.14649764365286 0  0.4974884620746181 16.20104339226467 0  0.3773700804308024 16.24402243645187 0  0.2536174186209674 16.2750208645242 0  0.127422282428429 16.29374014467385 0  0 17.87857142857143 0  0 17.75714285714286 0  0 17.63571428571429 0  0 17.51428571428571 0  0 17.39285714285714 0  0 17.27142857142857 0  0 17.15 0  0 17.02857142857143 0  0 16.90714285714286 0  0 16.78571428571428 0  0 16.66428571428571 0  0 16.54285714285714 0  0 16.42142857142857 0  17.8705035971223 18 0  17.7410071942446 18 0  17.61151079136691 18 0  17.48201438848921 18 0  17.35251798561151 18 0  17.22302158273381 18 0  17.09352517985612 18 0  16.96402877697842 18 0  16.83453237410072 18 0  16.70503597122302 18 0  16.57553956834532 18 0  16.44604316546762 18 0  16.31654676258993 18 0  16.18705035971223 18 0  16.05755395683453 18 0  15.92805755395683 18 0  15.79856115107913 18 0  15.66906474820144 18 0  15.53956834532374 18 0  15.41007194244604 18 0  15.28057553956834 18 0  15.15107913669064 18 0  15.02158273381295 18 0  14.89208633093525 18 0  14.76258992805755 18 0  14.63309352517985 18 0  14.50359712230215 18 0  14.37410071942446 18 0  14.24460431654676 18 0  14.11510791366906 18 0  13.98561151079136 18 0  13.85611510791366 18 0  13.72661870503597 18 0  13.59712230215827 18 0  13.46762589928057 18 0  13.33812949640287 18 0  13.20863309352517 18 0  13.07913669064748 18 0  12.94964028776977 18 0  12.82014388489208 18 0  12.69064748201438 18 0  12.56115107913668 18 0  12.43165467625898 18 0  12.30215827338128 18 0  12.17266187050359 18 0  12.04316546762589 18 0  11.91366906474819 18 0  11.78417266187049 18 0  11.65467625899279 18 0  11.52517985611509 18 0  11.3956834532374 18 0  11.2661870503597 18 0  11.136690647482 18 0  11.0071942446043 18 0  10.8776978417266 18 0  10.7482014388489 18 0  10.6187050359712 18 0  10.48920863309351 18 0  10.35971223021581 18 0  10.23021582733811 18 0  10.10071942446041 18 0  9.971223021582714 18 0  9.841726618705016 18 0  9.712230215827317 18 0  9.582733812949618 18 0  9.453237410071921 18 0  9.323741007194224 18 0  9.194244604316525 18 0  9.064748201438828 18 0  8.935251798561131 18 0  8.805755395683434 18 0  8.676258992805735 18 0  8.546762589928038 18 0  8.417266187050341 18 0  8.287769784172642 18 0  8.158273381294947 18 0  8.028776978417248 18 0  7.899280575539549 18 0  7.769784172661854 18 0  7.640287769784155 18 0  7.510791366906458 18 0  7.381294964028761 18 0  7.251798561151062 18 0  7.122302158273365 18 0  6.992805755395668 18 0  6.86330935251797 18 0  6.733812949640273 18 0  6.604316546762576 18 0  6.474820143884878 18 0  6.34532374100718 18 0  6.215827338129483 18 0  6.086330935251786 18 0  5.956834532374087 18 0  5.827338129496392 18 0  5.697
[...]
<PointData  Vectors="f_21"> 
<DataArray  type="Float64"  Name="f_21"  NumberOfComponents="3" format="ascii">-3.6892748260993619e-03 -2.7526241318529998e-03 0.0000000000000000e+00  0.0000000000000000e+00 0.0000000000000000e+00 0.0000000000000000e+00  -6.2792541884509152e-03 -2.4189089998717963e-02 0.0000000000000000e+00  -8.5154846781907382e-03 -4.1844130999596788e-02 0.0000000000000000e+00  -8.3330464985889099e-03 -4.1843714819785084e-02 0.0000000000000000e+00  -3.9161682308374024e-03 -6.0178010613359999e-02 0.0000000000000000e+00  4.1111452424083070e-03 -7.1001303769762270e-02 0.0000000000000000e+00  6.6401878983747744e-03 -7.1008670735923290e-02 0.0000000000000000e+00  1.9096015936934170e-02 -9.7769534806397052e-02 0.0000000000000000e+00  3.0102333217242913e-02 -1.0885705659870712e-01 0.0000000000000000e+00  3.3027071253715408e-02 -1.0886707611555128e-01 0.0000000000000000e+00  4.8729583853937927e-02 -1.3701937985422016e-01 0.0000000000000000e+00  6.8706113401614546e-02 -1.4043152813677967e-01 0.0000000000000000e+00  7.4301360202582684e-02 -1.4047018930170263e-01 0.0000000000000000e+00  1.0103992771049122e-01 -1.7950110651967910e-01 0.0000000000000000e+00  1.1462846600176069e-01 -2.1272679360441363e-01 0.0000000000000000e+00  1.0978737071812644e-01 -2.1848846332371999e-01 0.0000000000000000e+00  2.0405428107209148e-01 -4.8728644713145436e-01 0.0000000000000000e+00  1.1396831895013293e-01 -4.7867236993464246e-01 0.0000000000000000e+00  9.5168135177627386e-02 -3.0898383191900064e-01 0.0000000000000000e+00  9.5335174769041603e-02 -3.0898409460309717e-01 0.0000000000000000e+00  7.5045778549626435e-02 -2.6248172362188127e-01 0.0000000000000000e+00  6.7071806593768768e-02 -2.6240375601111804e-01 0.0000000000000000e+00  4.5504184072398791e-02 -1.6347676349786294e-01 0.0000000000000000e+00  4.3826379285746973e-02 -1.6347437768815251e-01 0.0000000000000000e+00  2.9226640255434661e-02 -9.7225631367844123e-02 0.0000000000000000e+00  2.5539471733828506e-02 -9.7209786270274226e-02 0.0000000000000000e+00  6.4521868597357170e-03 -5.0819013494615818e-03 0.0000000000000000e+00  0.0000000000000000e+00 0.0000000000000000e+00 0.0000000000000000e+00  -3.5274980880313019e-03 -2.4820491780442561e-02 0.0000000000000000e+00  -1.0750066016531658e-03 -2.5061962364490153e-02 0.0000000000000000e+00  -8.7026744011851648e-04 -2.8074923567201569e-02 0.0000000000000000e+00  4.1063018548353931e-03 -6.3242950922841282e-02 0.0000000000000000e+00  7.2289135465306992e-03 -6.5434967107367417e-02 0.0000000000000000e+00  1.3726183806912864e-02 -7.4135197830997215e-02 0.0000000000000000e+00  2.1284798408504565e-03 -3.4007008409489232e-02 0.0000000000000000e+00  4.5291724585716179e-03 -4.4775416200521709e-02 0.0000000000000000e+00  1.4601417935037728e-02 -9.2661475878150448e-02 0.0000000000000000e+00  3.0563659831255453e-02 -1.1935623243317212e-01 0.0000000000000000e+00  2.3089814381380049e-02 -1.0269001743491109e-01 0.0000000000000000e+00  5.8132565884048110e-02 -1.4208125713264783e-01 0.0000000000000000e+00  3.0474160711319566e-02 -1.0560934267262127e-01 0.0000000000000000e+00  3.1237152434556745e-02 -1.2015988985942280e-01 0.0000000000000000e+00  5.8594663351504810e-02 -1.4507944330078518e-01 0.0000000000000000e+00  6.5937884854689544e-02 -1.6514254256397981e-01 0.0000000000000000e+00  1.0258195962723715e-01 -1.8159168297433037e-01 0.0000000000000000e+00  1.0744743460520675e-01 -1.8247988081082292e-01 0.0000000000000000e+00  1.0204345475329540e-01 -2.0740965704787417e-01 0.0000000000000000e+00  4.3290307444383343e-02 -1.4925149005332194e-01 0.0000000000000000e+00  5.8934333206004379e-02 -2.0615563667282230e-01 0.0000000000000000e+00  3.9248472103583842e-02 -1.9380474442062851e-01 0.0000000000000000e+00  8.7021213335817568e-02 -2.7022109287549129e-01 0.0000000000000000e+00  1.0660087325494812e-01 -2.5746155751501620e-01 0.0000000000000000e+00  7.1488448318284673e-02 -3.5207869170637046e-01 0.0000000000000000e+00  -3.8043516600127308e-03 -2.7589664352548234e-03 0.0000000000000000e+00  -3.8890709347490521e-03 -2.7825985453832388e-03 0.0000000000000000e+00  -3.9095698740481948e-03 -2.8021828544982654e-03 0.0000000000000000e+00  -3.8590227734320321e-03 -2.8003921428372170e-03 0.0000000000000000e+00  -3.7410290860732222e-03 -2.7653671613096474e-03 0.0000000000000000e+00  -3.5621927036806446e-03 -2.6918054821521934e-03 0.0000000000000000e+00  -3.3283518159757425e-03 -2.5779464284689962e-03 0.0000000000000000e+00  -3.0439021028077166e-03 -2.4225201903116463e-03 0.0000000000000000e+00  -2.7109897957565011e-03 -2.2240034642101200e-03 0.0000000000000000e+00  -2.3294229514677872e-03 -1.9788120095334577e-03 0.0000000000000000e+00  -1.8961457765162089e-03 -1.6796781145354508e-03 0.0000000000000000e+00  -1.4036157348516385e-03 -1.3107687172498833e-03 0.0000000000000000e+00  -8.2086926829867744e-04 -8.3435955038069340e-04 0.0000000000000000e+00  -3.6750204198523736e-03 -2.8692643588179565e-03 0.0000000000000000e+00  -3.6227956036925949e-03 -3.0291119323264640e-03 0.0000000000000000e+00  -3.5469812509254070e-03 -3.2948328346385975e-03 0.0000000000000000e+00  -3.4761790156973777e-03 -3.7039236870485956e-03 0.0000000000000000e+00  -3.4253912345157582e-03 -4.2742281717868206e-03 0.0000000000000000e+00  -3.4130948611450183e-03 -5.0184947423947222e-03 0.0000000000000000e+00  -3.4528344730854164e-03 -5.9433958355056939e-03 0.0000000000000000e+00  -3.5523779808738476e-03 -7.0564327779644156e-03 0.0000000000000000e+00  -3.7188642187286599e-03 -8.3663273879646168e-03 0.0000000000000000e+00  -3.9518127215313345e-03 -9.8870532510031920e-03 0.0000000000000000e+00  -4.2474215025310510e-03 -1.1639254419631267e-02 0.0000000000000000e+00  -4.5966019640364380e-03 -1.3645862061968413e-02 0.0000000000000000e+00  -4.9879611610226882e-03 -1.5931801609131904e-02 0.0000000000000000e+00  -5.4113417980781609e-03 -1.8495399424032159e-02 0.0000000000000000e+00  -5.8519145998298374e-03 -2.1278653432492332e-02 0.0000000000000000e+00  -6.6405080760933103e-03 -2.7059306580952350e-02 0.0000000000000000e+00  -6.8982665012876998e-03 -2.9760004118647664e-02 0.0000000000000000e+00  -7.0415665288056191e-03 -3.2218682328974506e-02 0.0000000000000000e+00  -7.1002926860460162e-03 -3.4408455221596766e-02 0.0000000000000000e+00  -7.1379876857478068e-03 -3.6336135243229477e-02 0.0000000000000000e+00  -7.2139939738369348e-03 -3.8004985822964965e-02 0.0000000000000000e+00  -7.3640617228497443e-03 -3.9401239492519259e-02 0.0000000000000000e+00  -7.5863749408797932e-03 -4.0502777233973157e-02 0.0000000000000000e+00  -7.8536281326045260e-03 -4.1294811137154969e-02 0.0000000000000000e+00  -8.1158864774186594e-03 -4.1786344589216942e-02 0.0000000000000000e+00  -8.3253406866474877e-03 -4.2021895655797586e-02 0.0000000000000000e+00  -8.4549815120752887e-03 -4.2077854925643393e-02 0.0000000000000000e+00  -8.5121554920393975e-03 -4.2038298044177254e-02 0.0000000000000000e+00  -8.5233519365901182e-03 -4.1971514767880504e-02 0.0000000000000000e+00  -8.5187405009363708e-03 -4.1905441163785806e-02 0.0000000000000000e+00  -8.3771832213516313e-03 -4.1843643278992183e-02 0.0000000000000000e+00  -8.4224541579972761e-03 -4.1843926849955561e-02 0.0000000000000000e+00  -8.4683947251602571e-03 -4.1844206049905075e-02 0.0000000000000000e+00  -8.3305757770416895e-03 -4.1898645221849433e-02 0.0000000000000000e+00  -8.3181311480696532e-03 -4.1947688544698228e-02 0.0000000000000000e+00  -8.2785326531798556e-03 -4.1993293046677323e-02 0.0000000000000000e+00  -8.1830730760394758e-03 -4.2064488644822463e-02 0.0000000000000000e+00  -8.0021300690669619e-03 -4.2223997492448109e-02 0.0000000000000000e+00  -7.7358813810021942e-03 -4.2559964032883042e-02 0.0000000000000000e+00  -7.4048874136687865e-03 -4.3140768424122636e-02 0.0000000000000000e+00  -7.0597737042766302e-03 -4.4011969136362815e-02 0.0000000000000000e+00  -6.7457136640727998e-03 -4.5178125665649285e-02 0.0000000000000000e+00  -6.4888267253639439e-03 -4.6621348391954462e-02 0.0000000000000000e+00  -6.2826661407130316e-03 -4.8317527478231162e-02 0.0000000000000000e+00  -6.0804077884295815e-03 -5.0246371849544683e-02 0.0000000000000000e+00  -5.8097095845372195e-03 -5.2412209698769155e-02 0.0000000000000000e+00  -5.3858815782258269e-03 -5.4811157493397065e-02 0.0000000000000000e+00  -4.7555682497506645e-03 -5.7426809477871307e-02 0.0000000000000000e+00  -2.9164191298578657e-03 -6.2937606818303959e-02 0.0000000000000000e+00  -1.8358586829358039e-03 -6.5552914822313693e-02 0.0000000000000000e+00  -7.4888854093394192e-04 -6.7923680973765832e-02 0.0000000000000000e+00  2.7447687277576491e-04 -6.9987841433338305e-02 0.0000000000000000e+00  1.1731775710689359e-03 -7.1736191818152398e-02 0.0000000000000000e+00  1.8999014563905064e-03 -7.3153848020024309e-02 0.0000000000000000e+00  2.4384440668838571e-03 -7.4218678622795964e-02 0.0000000000000000e+00  2.8094533602155240e-03 -7.4907951431872774e-02 0.0000000000000000e+00  3.0544394421228613e-03 -7.5210440836717921e-02 0.0000000000000000e+00  3.2342146711461265e-03 -7.5142460808905451e-02 0.0000000000000000e+00  3.4024354577100392e-03 -7.4759191976738568e-02 0.0000000000000000e+00  3.5876118595378295e-03 -7.4149175710326254e-02 0.0000000000000000e+00  3.7806218521971584e-03 -7.3408451229427643e-02 0.0000000000000000e+00  3.9520795708494674e-03 -7.2616446966923168e-02 0.0000000000000000e+00  4.0686280619200953e-03 -7.1810128889908842e-02 0.0000000000000000e+00  6.0094080134501212e-03 -7.1006627580361692e-02 0.0000000000000000e+00  5.3774587273846793e-03 -7.1005001995963726e-02 0.0000000000000000e+00  4.7448925785074309e-03 -7.1003368097248290e-02 0.0000000000000000e+00  6.6768842029938632e-03 -7.1811130070104895e-02 0.0000000000000000e+00  6.7971162740696261e-03 -7.2600638715755519e-02 0.0000000000000000e+00  7.0178674074569750e-03 -7.3373324391166839e-02 0.0000000000000000e+00  7.3666477825401313e-03 -7.4153555067172125e-02 0.0000000000000000e+00  7.8700966001339408e-03 -7.5000415685901198e-02 0.0000000000000000e+00  8.5223249745475446e-03 -7.5997385033980805e-02 0.0000000000000000e+00  9.2967155398037109e-03 -7.7205255506264531e-02 0.0000000000000000e+00  1.0138435860523586e-02 -7.8659850476792775e-02 0.0000000000000000e+00  1.1002344343877622e-02 -8.0356723812153252e-02 0.0000000000000000e+00  1.1865893505073730e-02 -8.2272710236033539e-02 0.0000000000000000e+00  1.2740556053436651e-02 -8.4383568224371777e-02 0.0000000000000000e+00  1.3674842106704365e-02 -8.6676013431742485e-02 0.0000000000000000e+00  1.4737031409779510e-02 -8.9163276333952199e-02 0.0000000000000000e+00  1.5992627692196858e-02 -9.1855581261191283e-02 0.0000000000000000e+00  1.7462296461265309e-02 -9.4748379297436125e-02 0.0000000000000000e+00  2.0790514005012160e-02 -1.0079008064675864e-01 0.0000000000000000e+00  2.2432865979458174e-02 -1.0363494696649132e-01 0.0000000000000000e+00  2.3951936755049179e-02 -1.0620351870627825e-01 0.0000000000000000e+00  2.5300641846913195e-02 -1.0842681411802174e-01 0.0000000000000000e+00  2.6437239803580124e-02 -1.1028654139048182e-01 0.0000000000000000e+00  2.7338274331260085e-02 -1.1177842073701769e-01 0.0000000000000000e+00  2.8004605864898623e-02 -1.1287794165878004e-01 0.0000000000000000e+00  2.8468843491904282e-02 -1.1356369338738978e-01 0.0000000000000000e+00  2.8788436384376503e-02 -1.1382737597119999e-01 0.0000000000000000e+00  2.9029567270686986e-02 -1.1369083341301700e-01 0.0000000000000000e+00  2.9249925233526649e-02 -1.1321428660494562e-01 0.0000000000000000e+00  2.9482795782101192e-02 -1.1249659108235124e-01 0.0000000000000000e+00  2.9715241056718106e-02 -1.1163857556909978e-01 0.0000000000000000e+00  2.9916987827804765e-02 -1.1072343963001702e-01 0.0000000000000000e+00  3.0052755720537141e-02 -1.0979202302512872e-01 0.0000000000000000e+00  3.2297424350153765e-02 -1.0886436118130162e-01 0.0000000000000000e+00  3.1566561079985553e-02 -1.0886208558290017e-01 0.0000000000000000e+00  3.0835056365940635e-02 -1.0885979750812091e-01 0.0000000000000000e+00  3.3069095609766591e-02 -1.0979549692570557e-01 0.0000000000000000e+00  3.3207217513580169e-02 -1.1070964647915489e-01 0.0000000000000000e+00  3.3458896264104816e-02 -1.1160460227932070e-01 0.0000000000000000e+00  3.3852564398712794e-02 -1.1250496522284503e-01 0.0000000000000000e+00  3.4415626172319337e-02 -1.1347082027539933e-01 0.0000000000000000e+00  3.5141932913522578e-02 -1.1458741280119873e-01 0.0000000000000000e+00  3.6002732261222414e-02 -1.1591581047115299e-01 0.0000000000000000e+00  3.6943110876970955e-02 -1.1748743153408549e-01 0.0000000000000000e+00  3.7923263219739219e-02 -1.1929301123657854e-01 0.0000000000000000e+00  3.8928465385264482e-02 -1.2130629869281728e-01 0.0000000000000000e+00  3.9985460571036462e-02 -1.2349787077780840e-01 0.0000000000000000e+00  4.1162532026405629e-02 -1.2585540934087355e-01 0.0000000000000000e+00  4.2558030616635052e-02 -1.2838496391166782e-01 0.0000000000000000e+00  4.4267743062440135e-02 -1.3110197369735135e-01 0.0000000000000000e+00  4.6340319155510158e-02 -1.3400168072522609e-01 0.0000000000000000e+00  5.1298627137418472e-02 -1.4002637488392947e-01 0.0000000000000000e+00  5.3873563536376852e-02 -1.4283558372453162e-01 0.0000000000000000e+00  5.6325507912845685e-02 -1.4532905791275805e-01 0.0000000000000000e+00  5.8564730261916588e-02 -1.4741885135188110e-01 0.0000000000000000e+00  6.0524320128798020e-02 -1.4907082633095797e-01 0.0000000000000000e+00  6.2171258496300272e-02 -1.5026958988473266e-01 0.0000000000000000e+00  6.3507005054966398e-02 -1.5098104598454970e-01 0.0000000000000000e+00  6.4571283109535207e-02 -1.5118170445676615e-01 0.0000000000000000e+00  6.5429601985498492e-02 -1.5086831863242048e-01 0.0000000000000000e+00  6.6152794160979952e-02 -1.5007474538620102e-01 0.0000000000000000e+00  6.6798106342239844e-02 -1.4887724259200183e-01 0.0000000000000000e+00  6.7393525035467583e-02 -1.4739127296730589e-01 0.0000000000000000e+00  6.7918374563883610e-02 -1.4573110280595294e-01 0.0000000000000000e+00  6.8335615112567250e-02 -1.4399013268433125e-01 0.0000000000000000e+00  6.8605592031609763e-02 -1.4221693560394091e-01 0.0000000000000000e+00  7.2904241375633769e-02 -1.4046035755540659e-01 0.0000000000000000e+00  7.1505826408005929e-02 -1.4045089369099084e-01 0.0000000000000000e+00  7.0106617096265741e-02 -1.4044141078956360e-01 0.0000000000000000e+00  7.4376077963264758e-02 -1.4224957406811622e-01 0.0000000000000000e+00  7.4630075969753393e-02 -1.4400703599980955e-01 0.0000000000000000e+00  7.5080265572123925e-02 -1.4572897768496612e-01 0.0000000000000000e+00  7.5754701556161069e-02 -1.4743205382465480e-01 0.0000000000000000e+00  7.6680430370130240e-02 -1.4916988418227620e-01 0.0000000000000000e+00  7.7851026778449448e-02 -1.5102217569194962e-01 0.0000000000000000e+00  7.9238317531618599e-02 -1.5304406166435630e-01 0.0000000000000000e+00  8.0791270774280124e-02 -1.5526077283668147e-01 0.0000000000000000e+00  8.2479306529825061e-02 -1.5765852508363018e-01 0.0000000000000000e+00  8.4302683743222959e-02 -1.6021177882065019e-01 0.0000000000000000e+00  8.6305827363535870e-02 -1.6290149766585285e-01 0.0000000000000000e+00  8.8571127705121239e-02 -1.6573630849623328e-01 0.0000000000000000e+00  9.1191959656118107e-02 -1.6876031788225207e-01 0.0000000000000000e+00  9.4215517193090959e-02 -1.7204336577875190e-01 0.0000000000000000e+00  9.7578174085637015e-02 -1.7563381653075746e-01 0.0000000000000000e+00  1.0426888765036617e-01 -1.8351008575806219e-01 0.0000000000000000e+00  1.0699230993230507e-01 -1.8740981096189882e-01 0.0000000000000000e+00  1.0913001627973881e-01 -1.9103882264232630e-01 0.0000000000000000e+00  1.1074376344248367e-01 -1.9427004872644438e-01 0.0000000000000000e+00  1.1195791726779454e-01 -1.9709115962677370e-01 0.0000000000000000e+00  1.1288016913993509e-01 -1.9955267752507019e-01 0.0000000000000000e+00  1.1358564547479186e-01 -2.0171229849338101e-01 0.0000000000000000e+00  1.1411984769509551e-01 -2.0362816299552439e-01 0.0000000000000000e+00  1.1450711347024096e-01 -2.0534510105761661e-01 0.0000000000000000e+00  1.1476447645383987e-01 -2.0689036484538681e-01 0.0000000000000000e+00  1.1490265516407626e-01 -2.0827801058867601e-01 0.0000000000000000e+00  1.1493444103713429e-01 -2.0950511947282566e-01 0.0000000000000000e+00  1.1488285276572949e-01 -2.1056214792521175e-01 0.0000000000000000e+00  1.1477486772206255e-01 -2.1143698222867802e-01 0.0000000000000000e+00  1.1466963840690218e-01 -2.1213619246434171e-01 0.0000000000000000e+00  1.1035792961806266e-01 -2.1776929774190767e-01 0.0000000000000000e+00  1.1088532707014449e-01 -2.1703455041696906e-01 0.0000000000000000e+00  1.1134096154928162e-01 -2.1630328766477439e-01 0.0000000000000000e+00  1.1171641238888227e-01 -2.1559897399271172e-01 0.0000000000000000e+00  1.1201621178038318e-01 -2.1494331336110259e-01 0.0000000000000000e+00  1.1225316612881520e-01 -2.1435306258550896e-01 0.0000000000000000e+00  1.1244536536745091e-01 -2.1384174648234100e-01 0.0000000000000000e+00  1.1261478951235229e-01 -2.1342002050278497e-01 0.0000000000000000e+00  1.1278681030170577e-01 -2.1309552928622943e-01 0.0000000000000000e+00  1.1298945222408260e-01 -2.1287173164295109e-01 0.0000000000000000e+00  1.1325420412127063e-01 -2.1274697097498341e-01 0.0000000000000000e+00  1.1361165662206134e-01 -2.1270540117015099e-01 0.0000000000000000e+00  1.1408006302648091e-01 -2.1271727543314461e-01 0.0000000000000000e+00  2.0385941170585833e-01 -4.8059280267348087e-01 0.0000000000000000e+00  2.0363620251469569e-01 -4.7397303012090702e-01 0.0000000000000000e+00  2.0338937891361425e-01 -4.6732265458893041e-01 0.0000000000000000e+00  2.0310079906577391e-01 -4.6059825761610823e-01 0.0000000000000000e+00  2.0274709602278304e-01 -4.5378293827428284e-01 0.0000000000000000e+00  2.0231153884623088e-01 -4.4687762972228423e-01 0.0000000000000000e+00  2.0178356111446111e-01 -4.3989238013971432e-01 0.0000000000000000e+00  2.0115657500085318e-01 -4.3284392489230311e-01 0.0000000000000000e+00  2.0043103178302762e-01 -4.2575232411098451e-01 0.0000000000000000e+00  1.9961088190170073e-01 -4.1863861247919182e-01 0.0000000000000000e+00  1.9870339528951314e-01 -4.1152320478705035e-01 0.0000000000000000e+00  1.9771737241857884e-01 -4.0442597037727573e-01 0.0000000000000000e+00  1.9666259047617030e-01 -3.9736547944224232e-01 0.0000000000000000e+00  1.9554832039164088e-01 -3.9035901739042139e-01 0.0000000000000000e+00  1.9438235406362331e-01 -3.8342319653581786e-01 0.0000000000000000e+00  1.9317053094700043e-01 -3.7657503564181549e-01 0.0000000000000000e+00  1.9191665022603091e-01 -3.6983199962467628e-01 0.0000000000000000e+00  1.9062173051569237e-01 -3.6321503279596840e-01 0.0000000000000000e+00  1.8928484711184118e-01 -3.5674764618754934e-01 0.0000000000000000e+00  1.8790324946854467e-01 -3.5045881445917532e-01 0.0000000000000000e+00  1.8647292797876544e-01 -3.4438560083137687e-01 0.0000000000000000e+00  1.8498904631733690e-01 -3.3857880168958149e-01 0.0000000000000000e+00  1.8344673056478289e-01 -3.3312445896218296e-01 0.0000000000000000e+00  1.8187942735225537e-01 -3.2819170648723017e-01 0.0000000000000000e+00  1.8034383421667663e-01 -3.2367660741727189e-01 0.0000000000000000e+00  1.7884121962964222e-01 -3.1946386864237664e-01 0.0000000000000000e+00  1.7736769970807789e-01 -3.1550541067029958e-01 0.0000000000000000e+00  1.7592246054604846e-01 -3.1176705045455377e-01 0.0000000000000000e+00  1.7450485137155031e-01 -3.0822297840407897e-01 0.0000000000000000e+00  1.7311639414018612e-01 -3.0485225560346252e-01 0.0000000000000000e+00  1.7175920165419761e-01 -3.0163638506891050e-01 0.0000000000000000e+00  1.7043669054236918e-01 -2.9855848132988461e-01 0.0000000000000000e+00  1.6915292273369054e-01 -2.9560235605819662e-01 0.0000000000000000e+00  1.6791220667689449e-01 -2.9275267720301551e-01 0.0000000000000000e+00  1.6671917068299760e-01 -2.8999376383387476e-01 0.0000000000000000e+00  1.6557760711017164e-01 -2.8731037375567597e-01 0.0000000000000000e+00  1.6449087483020669e-01 -2.8468781164502255e-01 0.0000000000000000e+00  1.63460369866