<?xml version="1.0"?>
<VTKFile type="UnstructuredGrid"  version="0.1"  >
<UnstructuredGrid>
<Piece  NumberOfPoints="12853" NumberOfCells="23493">
<Points>
<DataArray  type="Float64"  NumberOfComponents="3"  format="ascii">-3.187178156719634e-14 1.7 0  0 0 0  1.3 3 0  -3.185690647650846e-14 4.300000000000001 0  -3.187178156719634e-14 4.699999999999999 0  1.3 6 0  -3.185690647650846e-14 7.300000000000001 0  -3.187178156719634e-14 7.699999999999999 0  1.3 9 0  -3.185690647650846e-14 10.3 0  -3.187178156719634e-14 10.7 0  1.3 12 0  -3.185690647650846e-14 13.3 0  -3.187178156719634e-14 13.7 0  1.3 15 0  -3.185690647650846e-14 16.3 0  0 18 0  18 18 0  17.99999999999997 16.3 0  17.99999999999997 13.7 0  17.99999999999997 13.3 0  17.99999999999997 10.7 0  17.99999999999997 10.3 0  17.99999999999997 7.7 0  17.99999999999997 7.3 0  17.99999999999997 4.7 0  17.99999999999997 4.3 0  17.99999999999997 1.7 0  18 0 0  4.3 3 0  7.3 3 0  10.3 3 0  4.3 6 0  7.3 6 0  10.3 6 0  13.3 3 0  16.3 3 0  13.3 6 0  16.3 6 0  4.3 9 0  4.3 12 0  7.3 9 0  10.3 9 0  7.3 12 0  10.3 12 0  4.3 15 0  7.3 15 0  10.3 15 0  13.3 9 0  13.3 12 0  16.3 9 0  16.3 12 0  13.3 15 0  16.3 15 0  0 1.578571428571429 0  0 1.457142857142856 0  0 1.335714285714285 0  0 1.214285714285712 0  0 1.092857142857142 0  0 0.9714285714285715 0  0 0.8499999999999979 0  0 0.7285714285714278 0  0 0.6071428571428577 0  0 0.485714285714284 0  0 0.3642857142857139 0  0 0.2428571428571438 0  0 0.1214285714285701 0  0.1274222824284281 1.706259855326144 0  0.2536174186209668 1.7249791354758 0  0.3773700804308007 1.755977563548128 0  0.497488462074617 1.798956607735327 0  0.6128157578737968 1.853502356347138 0  0.7222413029254824 1.919089504006691 0  0.8247112694127393 1.995086410628442 0  0.9192388155425116 2.080761184457488 0  1.004913589371558 2.17528873058726 0  1.080910495993309 2.277758697074517 0  1.146497643652861 2.387184242126203 0  1.201043392264673 2.502511537925383 0  1.244022436451871 2.622629919569199 0  1.275020864524199 2.746382581379033 0  1.293740144673856 2.872577717571571 0  1.293740144673856 3.127422282428428 0  1.2750208645242 3.253617418620966 0  1.244022436451872 3.3773700804308 0  1.201043392264673 3.497488462074616 0  1.146497643652862 3.612815757873796 0  1.08091049599331 3.722241302925481 0  1.00491358937156 3.824711269412738 0  0.9192388155425134 3.91923881554251 0  0.8247112694127412 4.004913589371556 0  0.7222413029254846 4.080910495993308 0  0.6128157578737984 4.146497643652861 0  0.4974884620746181 4.201043392264673 0  0.3773700804308024 4.244022436451871 0  0.2536174186209674 4.275020864524199 0  0.127422282428429 4.293740144673856 0  0 4.6 0  0 4.5 0  0 4.4 0  0.1274222824284281 4.706259855326143 0  0.2536174186209668 4.724979135475801 0  0.3773700804308007 4.755977563548129 0  0.497488462074617 4.798956607735327 0  0.6128157578737968 4.853502356347138 0  0.7222413029254824 4.919089504006691 0  0.8247112694127393 4.995086410628442 0  0.9192388155425116 5.080761184457488 0  1.004913589371558 5.17528873058726 0  1.080910495993309 5.277758697074518 0  1.146497643652861 5.387184242126203 0  1.201043392264673 5.502511537925383 0  1.244022436451871 5.622629919569198 0  1.275020864524199 5.746382581379033 0  1.293740144673856 5.872577717571572 0  1.293740144673856 6.127422282428428 0  1.2750208645242 6.253617418620967 0  1.244022436451872 6.377370080430801 0  1.201043392264673 6.497488462074616 0  1.146497643652862 6.612815757873795 0  1.08091049599331 6.722241302925481 0  1.00491358937156 6.824711269412737 0  0.9192388155425134 6.91923881554251 0  0.8247112694127412 7.004913589371556 0  0.7222413029254846 7.080910495993308 0  0.6128157578737984 7.146497643652861 0  0.4974884620746181 7.201043392264673 0  0.3773700804308024 7.244022436451871 0  0.2536174186209674 7.275020864524199 0  0.127422282428429 7.293740144673856 0  0 7.6 0  0 7.5 0  0 7.4 0  0.1274222824284281 7.706259855326143 0  0.2536174186209668 7.724979135475801 0  0.3773700804308007 7.755977563548129 0  0.497488462074617 7.798956607735327 0  0.6128157578737968 7.853502356347138 0  0.7222413029254824 7.919089504006691 0  0.8247112694127393 7.995086410628442 0  0.9192388155425116 8.080761184457488 0  1.004913589371558 8.17528873058726 0  1.080910495993309 8.277758697074518 0  1.146497643652861 8.387184242126203 0  1.201043392264673 8.502511537925383 0  1.244022436451871 8.622629919569199 0  1.275020864524199 8.746382581379033 0  1.293740144673856 8.872577717571572 0  1.293740144673856 9.127422282428428 0  1.2750208645242 9.253617418620966 0  1.244022436451872 9.377370080430801 0  1.201043392264673 9.497488462074616 0  1.146497643652862 9.612815757873795 0  1.08091049599331 9.722241302925481 0  1.00491358937156 9.824711269412738 0  0.9192388155425134 9.91923881554251 0  0.8247112694127412 10.00491358937156 0  0.7222413029254846 10.08091049599331 0  0.6128157578737984 10.14649764365286 0  0.4974884620746181 10.20104339226467 0  0.3773700804308024 10.24402243645187 0  0.2536174186209674 10.2750208645242 0  0.127422282428429 10.29374014467386 0  0 10.6 0  0 10.5 0  0 10.4 0  0.1274222824284281 10.70625985532614 0  0.2536174186209668 10.7249791354758 0  0.3773700804308007 10.75597756354813 0  0.497488462074617 10.79895660773533 0  0.6128157578737968 10.85350235634714 0  0.7222413029254824 10.91908950400669 0  0.8247112694127393 10.99508641062844 0  0.9192388155425116 11.08076118445749 0  1.004913589371558 11.17528873058726 0  1.080910495993309 11.27775869707452 0  1.146497643652861 11.3871842421262 0  1.201043392264673 11.50251153792538 0  1.244022436451871 11.6226299195692 0  1.275020864524199 11.74638258137903 0  1.293740144673856 11.87257771757157 0  1.293740144673856 12.12742228242843 0  1.2750208645242 12.25361741862097 0  1.244022436451872 12.3773700804308 0  1.201043392264673 12.49748846207462 0  1.146497643652862 12.6128157578738 0  1.08091049599331 12.72224130292548 0  1.00491358937156 12.82471126941274 0  0.9192388155425134 12.91923881554251 0  0.8247112694127412 13.00491358937156 0  0.7222413029254846 13.08091049599331 0  0.6128157578737984 13.14649764365286 0  0.4974884620746181 13.20104339226467 0  0.3773700804308024 13.24402243645187 0  0.2536174186209674 13.2750208645242 0  0.127422282428429 13.29374014467386 0  0 13.6 0  0 13.5 0  0 13.4 0  0.1274222824284281 13.70625985532614 0  0.2536174186209668 13.7249791354758 0  0.3773700804308007 13.75597756354813 0  0.497488462074617 13.79895660773533 0  0.6128157578737968 13.85350235634714 0  0.7222413029254824 13.91908950400669 0  0.8247112694127393 13.99508641062844 0  0.9192388155425116 14.08076118445749 0  1.004913589371558 14.17528873058726 0  1.080910495993309 14.27775869707452 0  1.146497643652861 14.3871842421262 0  1.201043392264673 14.50251153792538 0  1.244022436451871 14.6226299195692 0  1.275020864524199 14.74638258137903 0  1.293740144673856 14.87257771757157 0  1.293740144673856 15.12742228242843 0  1.2750208645242 15.25361741862097 0  1.244022436451872 15.3773700804308 0  1.201043392264673 15.49748846207462 0  1.146497643652862 15.6128157578738 0  1.08091049599331 15.72224130292548 0  1.00491358937156 15.82471126941274 0  0.9192388155425134 15.91923881554251 0  0.8247112694127412 16.00491358937156 0  0.7222413029254846 16.08091049599331 0  0.6128157578737984 16.14649764365286 0  0.4974884620746181 16.20104339226467 0  0.3773700804308024 16.24402243645187 0  0.2536174186209674 16.2750208645242 0  0.127422282428429 16.29374014467385 0  0 17.87857142857143 0  0 17.75714285714286 0  0 17.63571428571429 0  0 17.51428571428571 0  0 17.39285714285714 0  0 17.27142857142857 0  0 17.15 0  0 17.02857142857143 0  0 16.90714285714286 0  0 16.78571428571428 0  0 16.66428571428571 0  0 16.54285714285714 0  0 16.42142857142857 0  17.8705035971223 18 0  17.7410071942446 18 0  17.61151079136691 18 0  17.48201438848921 18 0  17.35251798561151 18 0  17.22302158273381 18 0  17.09352517985612 18 0  16.96402877697842 18 0  16.83453237410072 18 0  16.70503597122302 18 0  16.57553956834532 18 0  16.44604316546762 18 0  16.31654676258993 18 0  16.18705035971223 18 0  16.05755395683453 18 0  15.92805755395683 18 0  15.79856115107913 18 0  15.66906474820144 18 0  15.53956834532374 18 0  15.41007194244604 18 0  15.28057553956834 18 0  15.15107913669064 18 0  15.02158273381295 18 0  14.89208633093525 18 0  14.76258992805755 18 0  14.63309352517985 18 0  14.50359712230215 18 0  14.37410071942446 18 0  14.24460431654676 18 0  14.11510791366906 18 0  13.98561151079136 18 0  13.85611510791366 18 0  13.72661870503597 18 0  13.59712230215827 18 0  13.46762589928057 18 0  13.33812949640287 18 0  13.20863309352517 18 0  13.07913669064748 18 0  12.94964028776977 18 0  12.82014388489208 18 0  12.69064748201438 18 0  12.56115107913668 18 0  12.43165467625898 18 0  12.30215827338128 18 0  12.17266187050359 18 0  12.04316546762589 18 0  11.91366906474819 18 0  11.78417266187049 18 0  11.65467625899279 18 0  11.52517985611509 18 0  11.3956834532374 18 0  11.2661870503597 18 0  11.136690647482 18 0  11.0071942446043 18 0  10.8776978417266 18 0  10.7482014388489 18 0  10.6187050359712 18 0  10.48920863309351 18 0  10.35971223021581 18 0  10.23021582733811 18 0  10.10071942446041 18 0  9.971223021582714 18 0  9.841726618705016 18 0  9.712230215827317 18 0  9.582733812949618 18 0  9.453237410071921 18 0  9.323741007194224 18 0  9.194244604316525 18 0  9.064748201438828 18 0  8.935251798561131 18 0  8.805755395683434 18 0  8.676258992805735 18 0  8.546762589928038 18 0  8.417266187050341 18 0  8.287769784172642 18 0  8.158273381294947 18 0  8.028776978417248 18 0  7.899280575539549 18 0  7.769784172661854 18 0  7.640287769784155 18 0  7.510791366906458 18 0  7.381294964028761 18 0  7.251798561151062 18 0  7.122302158273365 18 0  6.992805755395668 18 0  6.86330935251797 18 0  6.733812949640273 18 0  6.604316546762576 18 0  6.474820143884878 18 0  6.34532374100718 18 0  6.215827338129483 18 0  6.086330935251786 18 0  5.956834532374087 18 0  5.827338129496392 18 0  5.697
[...]
<PointData  Vectors="f_21"> 
<DataArray  type="Float64"  Name="f_21"  NumberOfComponents="3" format="ascii">-6.6479998276592408e-04 -4.9742814479175124e-04 0.0000000000000000e+00  0.0000000000000000e+00 0.0000000000000000e+00 0.0000000000000000e+00  -1.2135255467119947e-03 -4.3740515040367051e-03 0.0000000000000000e+00  -1.8210603927768894e-03 -7.7276342564563073e-03 0.0000000000000000e+00  -1.8427160501698094e-03 -7.7275485321998700e-03 0.0000000000000000e+00  -1.3478339309992984e-03 -1.0894398323237140e-02 0.0000000000000000e+00  -5.0880116868316685e-04 -1.3360023744299405e-02 0.0000000000000000e+00  -2.2230104187032201e-04 -1.3360006504562757e-02 0.0000000000000000e+00  1.3115661219319688e-03 -1.7626488184637176e-02 0.0000000000000000e+00  2.6574708050158932e-03 -1.9952182120215111e-02 0.0000000000000000e+00  3.0412922017347124e-03 -1.9952243110857242e-02 0.0000000000000000e+00  5.1581690808767885e-03 -2.4561951410209087e-02 0.0000000000000000e+00  7.6325363068243269e-03 -2.5966538181609756e-02 0.0000000000000000e+00  8.3439732938653099e-03 -2.5967077880764217e-02 0.0000000000000000e+00  1.1946534558298473e-02 -3.1888827026011271e-02 0.0000000000000000e+00  1.3855075537764600e-02 -3.7589432509418139e-02 0.0000000000000000e+00  1.2837662442689154e-02 -3.8572023388242206e-02 0.0000000000000000e+00  2.8446587797131211e-02 -7.9775686855048863e-02 0.0000000000000000e+00  1.5293905501192983e-02 -7.8729204555061938e-02 0.0000000000000000e+00  1.2483744277288145e-02 -5.2636586390933410e-02 0.0000000000000000e+00  1.2303798826610948e-02 -5.2636632484469897e-02 0.0000000000000000e+00  1.0041004793496519e-02 -4.2009843093689742e-02 0.0000000000000000e+00  9.2150292270974724e-03 -4.2009250787733529e-02 0.0000000000000000e+00  6.6733814057716601e-03 -2.7622212427308546e-02 0.0000000000000000e+00  6.3148406445086369e-03 -2.7622277789648438e-02 0.0000000000000000e+00  4.3750321366717443e-03 -1.5547682733438878e-02 0.0000000000000000e+00  3.9372454405160106e-03 -1.5547639592804996e-02 0.0000000000000000e+00  1.0992427431817389e-03 -8.6066893705607161e-04 0.0000000000000000e+00  0.0000000000000000e+00 0.0000000000000000e+00 0.0000000000000000e+00  -7.1330604061565974e-04 -4.3822976714754354e-03 0.0000000000000000e+00  -3.6693170148762214e-04 -4.4304782259287053e-03 0.0000000000000000e+00  -2.2003065119756196e-04 -4.9200551348303201e-03 0.0000000000000000e+00  -1.3749608886663459e-04 -1.1201571394129582e-02 0.0000000000000000e+00  5.6182283114226560e-04 -1.1531856121571026e-02 0.0000000000000000e+00  1.4105639705527682e-03 -1.3007272426222403e-02 0.0000000000000000e+00  1.4734657994782863e-04 -5.9149935718847361e-03 0.0000000000000000e+00  8.8515602531897327e-04 -7.4971954604876254e-03 0.0000000000000000e+00  2.1061123702587319e-03 -1.5951333447590005e-02 0.0000000000000000e+00  4.0047497399682769e-03 -1.9995829199396575e-02 0.0000000000000000e+00  2.1936284558385561e-03 -1.8152012667574793e-02 0.0000000000000000e+00  6.4777048779913757e-03 -2.5060925129504103e-02 0.0000000000000000e+00  3.2083646018796247e-03 -1.8610413254124668e-02 0.0000000000000000e+00  3.7628682311653299e-03 -2.1063821194585827e-02 0.0000000000000000e+00  6.8518908512716038e-03 -2.5516292901812506e-02 0.0000000000000000e+00  7.6960446887669072e-03 -2.8907866171057579e-02 0.0000000000000000e+00  1.2482622839445168e-02 -3.1927199635882524e-02 0.0000000000000000e+00  1.3123574465200334e-02 -3.1990219649429330e-02 0.0000000000000000e+00  1.2485429174695393e-02 -3.6322467626174956e-02 0.0000000000000000e+00  5.1054801319966453e-03 -2.5797046485593562e-02 0.0000000000000000e+00  7.4823301001505169e-03 -3.5574719007040408e-02 0.0000000000000000e+00  5.8899346214805852e-03 -3.2511383273179741e-02 0.0000000000000000e+00  1.0449135856947961e-02 -4.5378382807361041e-02 0.0000000000000000e+00  1.2937665404875367e-02 -4.4431932022123491e-02 0.0000000000000000e+00  9.2565100948937360e-03 -5.9172929355636381e-02 0.0000000000000000e+00  -6.8506503214591430e-04 -4.9858149869694117e-04 0.0000000000000000e+00  -6.9977962730491806e-04 -5.0278881257975218e-04 0.0000000000000000e+00  -7.0290128102971634e-04 -5.0615466147047538e-04 0.0000000000000000e+00  -6.9327346169584031e-04 -5.0556549658992578e-04 0.0000000000000000e+00  -6.7159700661948546e-04 -4.9891374444250734e-04 0.0000000000000000e+00  -6.3909205359936687e-04 -4.8528217801273435e-04 0.0000000000000000e+00  -5.9682579906861590e-04 -4.6438189771507799e-04 0.0000000000000000e+00  -5.4559524607201938e-04 -4.3601478741918365e-04 0.0000000000000000e+00  -4.8578638264098448e-04 -3.9993290041626388e-04 0.0000000000000000e+00  -4.1735902079449640e-04 -3.5551766334090680e-04 0.0000000000000000e+00  -3.3975205193483330e-04 -3.0148980805369253e-04 0.0000000000000000e+00  -2.5158851134646101e-04 -2.3503848993577535e-04 0.0000000000000000e+00  -1.4728530687189634e-04 -1.4945071246510148e-04 0.0000000000000000e+00  -6.6224362436185212e-04 -5.1800164046745373e-04 0.0000000000000000e+00  -6.5296129996007086e-04 -5.4647667788421854e-04 0.0000000000000000e+00  -6.3962984571297259e-04 -5.9411227778451842e-04 0.0000000000000000e+00  -6.2745484816070828e-04 -6.6758890357483387e-04 0.0000000000000000e+00  -6.1918680905335380e-04 -7.7006660379452796e-04 0.0000000000000000e+00  -6.1821216646132816e-04 -9.0380902187758838e-04 0.0000000000000000e+00  -6.2704469187425168e-04 -1.0700198039849723e-03 0.0000000000000000e+00  -6.4719958970891863e-04 -1.2700983506622584e-03 0.0000000000000000e+00  -6.8011522878770895e-04 -1.5057168131453495e-03 0.0000000000000000e+00  -7.2593609940742516e-04 -1.7795524982917807e-03 0.0000000000000000e+00  -7.8431901622598920e-04 -2.0955563139637002e-03 0.0000000000000000e+00  -8.5410795364412873e-04 -2.4581420515761713e-03 0.0000000000000000e+00  -9.3386079736795054e-04 -2.8721221556214610e-03 0.0000000000000000e+00  -1.0223732032437413e-03 -3.3374638016502060e-03 0.0000000000000000e+00  -1.1174284944556721e-03 -3.8437819469659142e-03 0.0000000000000000e+00  -1.3004549321033788e-03 -4.8974368399327187e-03 0.0000000000000000e+00  -1.3702059388445752e-03 -5.3899540006861748e-03 0.0000000000000000e+00  -1.4193037626630185e-03 -5.8381931856290531e-03 0.0000000000000000e+00  -1.4518054363996964e-03 -6.2375683238944709e-03 0.0000000000000000e+00  -1.4782978010987019e-03 -6.5898893512217555e-03 0.0000000000000000e+00  -1.5091653480616884e-03 -6.8964347276575010e-03 0.0000000000000000e+00  -1.5509720618091447e-03 -7.1553829678482053e-03 0.0000000000000000e+00  -1.6037718395733387e-03 -7.3631520878054239e-03 0.0000000000000000e+00  -1.6630081267134820e-03 -7.5171951764732466e-03 0.0000000000000000e+00  -1.7199872382308390e-03 -7.6189394188408074e-03 0.0000000000000000e+00  -1.7662074259661114e-03 -7.6760300028467891e-03 0.0000000000000000e+00  -1.7967585119560926e-03 -7.7018197846276028e-03 0.0000000000000000e+00  -1.8128336760527936e-03 -7.7111201396287774e-03 0.0000000000000000e+00  -1.8190631023740549e-03 -7.7159947715394923e-03 0.0000000000000000e+00  -1.8207897474202875e-03 -7.7213065636095790e-03 0.0000000000000000e+00  -1.8370403360645077e-03 -7.7275376275340660e-03 0.0000000000000000e+00  -1.8315670299185289e-03 -7.7275919311558293e-03 0.0000000000000000e+00  -1.8262111196238643e-03 -7.7276455183509975e-03 0.0000000000000000e+00  -1.8431208906824058e-03 -7.7200805222956345e-03 0.0000000000000000e+00  -1.8434263961764658e-03 -7.7117276482520855e-03 0.0000000000000000e+00  -1.8405290026246609e-03 -7.7031076084084407e-03 0.0000000000000000e+00  -1.8292558682304688e-03 -7.6996043174529663e-03 0.0000000000000000e+00  -1.8042602867400549e-03 -7.7126340798158903e-03 0.0000000000000000e+00  -1.7655384158940446e-03 -7.7581764240329931e-03 0.0000000000000000e+00  -1.7167485139026532e-03 -7.8486882277794354e-03 0.0000000000000000e+00  -1.6670188260199759e-03 -7.9926156761300441e-03 0.0000000000000000e+00  -1.6246404801904932e-03 -8.1911527327305691e-03 0.0000000000000000e+00  -1.5946974213524488e-03 -8.4415848297653938e-03 0.0000000000000000e+00  -1.5767529205851314e-03 -8.7401969288079459e-03 0.0000000000000000e+00  -1.5636299537310991e-03 -9.0839793442791406e-03 0.0000000000000000e+00  -1.5441926813510858e-03 -9.4743647476012906e-03 0.0000000000000000e+00  -1.5056202646821632e-03 -9.9106445953028033e-03 0.0000000000000000e+00  -1.4403226925164567e-03 -1.0389437346206872e-02 0.0000000000000000e+00  -1.2338045703284672e-03 -1.1401036683777318e-02 0.0000000000000000e+00  -1.1074956811132906e-03 -1.1881454003042668e-02 0.0000000000000000e+00  -9.7788238985594116e-04 -1.2318319317788208e-02 0.0000000000000000e+00  -8.5481918314181534e-04 -1.2702083730197086e-02 0.0000000000000000e+00  -7.4823344592891484e-04 -1.3032358013689049e-02 0.0000000000000000e+00  -6.6650179587591542e-04 -1.3307732898924609e-02 0.0000000000000000e+00  -6.1305527454591697e-04 -1.3525044608345657e-02 0.0000000000000000e+00  -5.8496190037007000e-04 -1.3680489686892014e-02 0.0000000000000000e+00  -5.7534510279401950e-04 -1.3771858558463280e-02 0.0000000000000000e+00  -5.7367120878053419e-04 -1.3801389010907012e-02 0.0000000000000000e+00  -5.7029835285036677e-04 -1.3778056270566939e-02 0.0000000000000000e+00  -5.5980925944941462e-04 -1.3716826865371299e-02 0.0000000000000000e+00  -5.4342292150033654e-04 -1.3634186225531619e-02 0.0000000000000000e+00  -5.2602930804890573e-04 -1.3543814789289951e-02 0.0000000000000000e+00  -5.1338204995804437e-04 -1.3451876178689702e-02 0.0000000000000000e+00  -2.9366609779597400e-04 -1.3359972066923555e-02 0.0000000000000000e+00  -3.6523777690298116e-04 -1.3360015949558744e-02 0.0000000000000000e+00  -4.3691469742309584e-04 -1.3360058981143596e-02 0.0000000000000000e+00  -2.1791129583875702e-04 -1.3450688125934709e-02 0.0000000000000000e+00  -2.0374833898111227e-04 -1.3539526357872330e-02 0.0000000000000000e+00  -1.7670952385616747e-04 -1.3626341322332270e-02 0.0000000000000000e+00  -1.3176519307693614e-04 -1.3715982018018670e-02 0.0000000000000000e+00  -6.3979795346832182e-05 -1.3819477628617058e-02 0.0000000000000000e+00  2.5797046615230668e-05 -1.3952248765647520e-02 0.0000000000000000e+00  1.3297236728930821e-04 -1.4125713112976545e-02 0.0000000000000000e+00  2.4772555693806637e-04 -1.4346939934629420e-02 0.0000000000000000e+00  3.6167255139329463e-04 -1.4615828824554224e-02 0.0000000000000000e+00  4.7011672911461105e-04 -1.4928888647751033e-02 0.0000000000000000e+00  5.7405676526429213e-04 -1.5282300714239555e-02 0.0000000000000000e+00  6.8078344220510003e-04 -1.5673861874805132e-02 0.0000000000000000e+00  8.0081843751929045e-04 -1.6105940345744620e-02 0.0000000000000000e+00  9.4467864083825324e-04 -1.6579110884216170e-02 0.0000000000000000e+00  1.1165584279278077e-03 -1.7091118517141842e-02 0.0000000000000000e+00  1.5184554147887506e-03 -1.8160721991160367e-02 0.0000000000000000e+00  1.7241383409949055e-03 -1.8663548813072951e-02 0.0000000000000000e+00  1.9193968480267179e-03 -1.9118284326603098e-02 0.0000000000000000e+00  2.0962188038216394e-03 -1.9514712831175368e-02 0.0000000000000000e+00  2.2459073298059179e-03 -1.9850945666021563e-02 0.0000000000000000e+00  2.3624070439307874e-03 -2.0126978244997810e-02 0.0000000000000000e+00  2.4440089296069727e-03 -2.0339096010942158e-02 0.0000000000000000e+00  2.4948757490961147e-03 -2.0483563992007247e-02 0.0000000000000000e+00  2.5239640377809950e-03 -2.0558514138697335e-02 0.0000000000000000e+00  2.5423081142250904e-03 -2.0566998528529053e-02 0.0000000000000000e+00  2.5599247366268119e-03 -2.0518672152177272e-02 0.0000000000000000e+00  2.5828950204609346e-03 -2.0430077428726739e-02 0.0000000000000000e+00  2.6093010545213207e-03 -2.0318360215421827e-02 0.0000000000000000e+00  2.6341242155866955e-03 -2.0197737810608303e-02 0.0000000000000000e+00  2.6513402300109711e-03 -2.0075051235377946e-02 0.0000000000000000e+00  2.9456043412815058e-03 -1.9952188398136225e-02 0.0000000000000000e+00  2.8497041807572987e-03 -1.9952213907846825e-02 0.0000000000000000e+00  2.7536943023322869e-03 -1.9952237952949970e-02 0.0000000000000000e+00  3.0471777169349882e-03 -2.0073912794172918e-02 0.0000000000000000e+00  3.0658911561191023e-03 -2.0193420045163890e-02 0.0000000000000000e+00  3.1005591743764518e-03 -2.0310291612580987e-02 0.0000000000000000e+00  3.1562988045521442e-03 -2.0429234303997460e-02 0.0000000000000000e+00  3.2381270037230006e-03 -2.0561201007680018e-02 0.0000000000000000e+00  3.3451973457861613e-03 -2.0721681131302985e-02 0.0000000000000000e+00  3.4726182742645883e-03 -2.0922042021254354e-02 0.0000000000000000e+00  3.6106040926093610e-03 -2.1168629940094913e-02 0.0000000000000000e+00  3.7516117408666859e-03 -2.1460697063101154e-02 0.0000000000000000e+00  3.8919898103461264e-03 -2.1794523325935226e-02 0.0000000000000000e+00  4.0347383973248557e-03 -2.2165700486654668e-02 0.0000000000000000e+00  4.1894224394451425e-03 -2.2572739080438102e-02 0.0000000000000000e+00  4.3699559073057306e-03 -2.3017016209316305e-02 0.0000000000000000e+00  4.5894862866799509e-03 -2.3500254489366091e-02 0.0000000000000000e+00  4.8542500960345823e-03 -2.4020200383346235e-02 0.0000000000000000e+00  5.4848853892025115e-03 -2.5100509081320253e-02 0.0000000000000000e+00  5.8138914146699588e-03 -2.5603703933259735e-02 0.0000000000000000e+00  6.1296324146744210e-03 -2.6052806129795086e-02 0.0000000000000000e+00  6.4196587719356803e-03 -2.6435496998759224e-02 0.0000000000000000e+00  6.6727337060902532e-03 -2.6748243278114477e-02 0.0000000000000000e+00  6.8819715396730430e-03 -2.6989834051530281e-02 0.0000000000000000e+00  7.0460117585802642e-03 -2.7155407238582233e-02 0.0000000000000000e+00  7.1701705677808796e-03 -2.7240957694441265e-02 0.0000000000000000e+00  7.2646655232837852e-03 -2.7245265821755040e-02 0.0000000000000000e+00  7.3413056621500416e-03 -2.7172959093203490e-02 0.0000000000000000e+00  7.4101679223579440e-03 -2.7035811744363578e-02 0.0000000000000000e+00  7.4767178551375562e-03 -2.6852552729868296e-02 0.0000000000000000e+00  7.5380807156142605e-03 -2.6642077108073481e-02 0.0000000000000000e+00  7.5884029088952552e-03 -2.6419891551724146e-02 0.0000000000000000e+00  7.6211258208059799e-03 -2.6193788749897331e-02 0.0000000000000000e+00  8.1664033229661408e-03 -2.5966908567892084e-02 0.0000000000000000e+00  7.9886103915149751e-03 -2.5966809657636307e-02 0.0000000000000000e+00  7.8106854659715820e-03 -2.5966709138735750e-02 0.0000000000000000e+00  8.3548342821712831e-03 -2.6193093747072092e-02 0.0000000000000000e+00  8.3887069815302660e-03 -2.6415905223239940e-02 0.0000000000000000e+00  8.4486438231026854e-03 -2.6633941739948899e-02 0.0000000000000000e+00  8.5397501708644307e-03 -2.6850883108190490e-02 0.0000000000000000e+00  8.6670868682433080e-03 -2.7076841414309497e-02 0.0000000000000000e+00  8.8299300745879016e-03 -2.7326602392666786e-02 0.0000000000000000e+00  9.0236495737021933e-03 -2.7610791952614441e-02 0.0000000000000000e+00  9.2392170293037409e-03 -2.7934988576077752e-02 0.0000000000000000e+00  9.4706098662349376e-03 -2.8297879678861923e-02 0.0000000000000000e+00  9.7165572194313678e-03 -2.8695834158710784e-02 0.0000000000000000e+00  9.9829320189941863e-03 -2.9125748295897799e-02 0.0000000000000000e+00  1.0281895208587766e-02 -2.9588701444143758e-02 0.0000000000000000e+00  1.0627793627559189e-02 -3.0090755681797011e-02 0.0000000000000000e+00  1.1028964018055452e-02 -3.0640546554381556e-02 0.0000000000000000e+00  1.1478645656733510e-02 -3.1242997683254392e-02 0.0000000000000000e+00  1.2389589308811602e-02 -3.2554531435658549e-02 0.0000000000000000e+00  1.2770479845221011e-02 -3.3201118246322353e-02 0.0000000000000000e+00  1.3075858150865111e-02 -3.3803654281556891e-02 0.0000000000000000e+00  1.3311024463063535e-02 -3.4343366118306802e-02 0.0000000000000000e+00  1.3490651961523584e-02 -3.4818587695256982e-02 0.0000000000000000e+00  1.3628237654148036e-02 -3.5237187829434788e-02 0.0000000000000000e+00  1.3733479329104915e-02 -3.5608161690862825e-02 0.0000000000000000e+00  1.3812396198518529e-02 -3.5940586960303514e-02 0.0000000000000000e+00  1.3868234075451666e-02 -3.6241424571484118e-02 0.0000000000000000e+00  1.3903412451294660e-02 -3.6514823784354250e-02 0.0000000000000000e+00  1.3919585862947481e-02 -3.6762779370648917e-02 0.0000000000000000e+00  1.3918859453578314e-02 -3.6984473379520037e-02 0.0000000000000000e+00  1.3905165060710054e-02 -3.7177993313970953e-02 0.0000000000000000e+00  1.3883165709375171e-02 -3.7341022158544443e-02 0.0000000000000000e+00  1.3862972130802127e-02 -3.7474430910174654e-02 0.0000000000000000e+00  1.2947097425290582e-02 -3.8449485537462122e-02 0.0000000000000000e+00  1.3050258968228385e-02 -3.8324417302662006e-02 0.0000000000000000e+00  1.3141639551616962e-02 -3.8199893573042196e-02 0.0000000000000000e+00  1.3219598873374056e-02 -3.8079897080128759e-02 0.0000000000000000e+00  1.3284798579735690e-02 -3.7968121631760922e-02 0.0000000000000000e+00  1.3339345437582747e-02 -3.7867429323311406e-02 0.0000000000000000e+00  1.3386265192629233e-02 -3.7780134842164838e-02 0.0000000000000000e+00  1.3429257663106039e-02 -3.7708066968580506e-02 0.0000000000000000e+00  1.3472607883341351e-02 -3.7652548030211480e-02 0.0000000000000000e+00  1.3521062435715100e-02 -3.7614189759073401e-02 0.0000000000000000e+00  1.3579968547831816e-02 -3.7592749914462695e-02 0.0000000000000000e+00  1.3654550839842135e-02 -3.7585579070757040e-02 0.0000000000000000e+00  1.3747976957849779e-02 -3.7587650720811418e-02 0.0000000000000000e+00  2.8393948971312290e-02 -7.8832215707013389e-02 0.0000000000000000e+00  2.8338487105918284e-02 -7.7887353624204847e-02 0.0000000000000000e+00  2.8279227424005033e-02 -7.6931725194298736e-02 0.0000000000000000e+00  2.8213537297272107e-02 -7.5960477442806387e-02 0.0000000000000000e+00  2.8138070520283852e-02 -7.4971842447253481e-02 0.0000000000000000e+00  2.8050627885605715e-02 -7.3966350316903823e-02 0.0000000000000000e+00  2.7949976822932335e-02 -7.2945733259374618e-02 0.0000000000000000e+00  2.7835554357622073e-02 -7.1912590447335667e-02 0.0000000000000000e+00  2.7707860304734645e-02 -7.0869896220761647e-02 0.0000000000000000e+00  2.7567896709081594e-02 -6.9820661386853333e-02 0.0000000000000000e+00  2.7417112159293038e-02 -6.8767718649821771e-02 0.0000000000000000e+00  2.7257103860692466e-02 -6.7713732955314868e-02 0.0000000000000000e+00  2.7089507706125646e-02 -6.6661127035018294e-02 0.0000000000000000e+00  2.6915750729033388e-02 -6.5612113461837762e-02 0.0000000000000000e+00  2.6736908178823338e-02 -6.4568830545567932e-02 0.0000000000000000e+00  2.6553576710372975e-02 -6.3533534458543955e-02 0.0000000000000000e+00  2.6366017973170199e-02 -6.2508672095655360e-02 0.0000000000000000e+00  2.6173789510050446e-02 -6.1497370790583018e-02 0.0000000000000000e+00  2.5976196552929647e-02 -6.0503328995137981e-02 0.0000000000000000e+00  2.5772135667218456e-02 -5.9531344632297180e-02 0.0000000000000000e+00  2.5560280662096341e-02 -5.8587748290309626e-02 0.0000000000000000e+00  2.5339173339697148e-02 -5.7681384156639891e-02 0.0000000000000000e+00  2.5107370611205392e-02 -5.6827337395572927e-02 0.0000000000000000e+00  2.4870265328484659e-02 -5.6055109368837015e-02 0.0000000000000000e+00  2.4637376083380649e-02 -5.5347334047929866e-02 0.0000000000000000e+00  2.4408640651081264e-02 -5.4684759812791951e-02 0.0000000000000000e+00  2.4183147576985611e-02 -5.4059753218452702e-02 0.0000000000000000e+00  2.3960622744052518e-02 -5.3467110007183696e-02 0.0000000000000000e+00  2.3740935597331717e-02 -5.2903064894318522e-02 0.0000000000000000e+00  2.3524372738830016e-02 -5.2364637809775426e-02 0.0000000000000000e+00  2.3311418598683561e-02 -5.1849220397604229e-02 0.0000000000000000e+00  2.3102810206780781e-02 -5.1354400273122623e-02 0.0000000000000000e+00  2.2899448469985238e-02 -5.0877809318894351e-02 0.0000000000000000e+00  2.2702236671539290e-02 -5.0417123502330338e-02 0.0000000000000000e+00  2.2512168611372337e-02 -4.9969894008225886e-02 0.0000000000000000e+00  2.2330077691980855e-02 -4.9533671812530253e-02 0.0000000000000000e+00  2.2156655405047788e-02 -4.9106040523017272e-02 0.000000000000