<?xml version="1.0"?>
<VTKFile type="UnstructuredGrid"  version="0.1"  >
<UnstructuredGrid>
<Piece  NumberOfPoints="12853" NumberOfCells="23493">
<Points>
<DataArray  type="Float64"  NumberOfComponents="3"  format="ascii">-3.187178156719634e-14 1.7 0  0 0 0  1.3 3 0  -3.185690647650846e-14 4.300000000000001 0  -3.187178156719634e-14 4.699999999999999 0  1.3 6 0  -3.185690647650846e-14 7.300000000000001 0  -3.187178156719634e-14 7.699999999999999 0  1.3 9 0  -3.185690647650846e-14 10.3 0  -3.187178156719634e-14 10.7 0  1.3 12 0  -3.185690647650846e-14 13.3 0  -3.187178156719634e-14 13.7 0  1.3 15 0  -3.185690647650846e-14 16.3 0  0 18 0  18 18 0  17.99999999999997 16.3 0  17.99999999999997 13.7 0  17.99999999999997 13.3 0  17.99999999999997 10.7 0  17.99999999999997 10.3 0  17.99999999999997 7.7 0  17.99999999999997 7.3 0  17.99999999999997 4.7 0  17.99999999999997 4.3 0  17.99999999999997 1.7 0  18 0 0  4.3 3 0  7.3 3 0  10.3 3 0  4.3 6 0  7.3 6 0  10.3 6 0  13.3 3 0  16.3 3 0  13.3 6 0  16.3 6 0  4.3 9 0  4.3 12 0  7.3 9 0  10.3 9 0  7.3 12 0  10.3 12 0  4.3 15 0  7.3 15 0  10.3 15 0  13.3 9 0  13.3 12 0  16.3 9 0  16.3 12 0  13.3 15 0  16.3 15 0  0 1.578571428571429 0  0 1.457142857142856 0  0 1.335714285714285 0  0 1.214285714285712 0  0 1.092857142857142 0  0 0.9714285714285715 0  0 0.8499999999999979 0  0 0.7285714285714278 0  0 0.6071428571428577 0  0 0.485714285714284 0  0 0.3642857142857139 0  0 0.2428571428571438 0  0 0.1214285714285701 0  0.1274222824284281 1.706259855326144 0  0.2536174186209668 1.7249791354758 0  0.3773700804308007 1.755977563548128 0  0.497488462074617 1.798956607735327 0  0.6128157578737968 1.853502356347138 0  0.7222413029254824 1.919089504006691 0  0.8247112694127393 1.995086410628442 0  0.9192388155425116 2.080761184457488 0  1.004913589371558 2.17528873058726 0  1.080910495993309 2.277758697074517 0  1.146497643652861 2.387184242126203 0  1.201043392264673 2.502511537925383 0  1.244022436451871 2.622629919569199 0  1.275020864524199 2.746382581379033 0  1.293740144673856 2.872577717571571 0  1.293740144673856 3.127422282428428 0  1.2750208645242 3.253617418620966 0  1.244022436451872 3.3773700804308 0  1.201043392264673 3.497488462074616 0  1.146497643652862 3.612815757873796 0  1.08091049599331 3.722241302925481 0  1.00491358937156 3.824711269412738 0  0.9192388155425134 3.91923881554251 0  0.8247112694127412 4.004913589371556 0  0.7222413029254846 4.080910495993308 0  0.6128157578737984 4.146497643652861 0  0.4974884620746181 4.201043392264673 0  0.3773700804308024 4.244022436451871 0  0.2536174186209674 4.275020864524199 0  0.127422282428429 4.293740144673856 0  0 4.6 0  0 4.5 0  0 4.4 0  0.1274222824284281 4.706259855326143 0  0.2536174186209668 4.724979135475801 0  0.3773700804308007 4.755977563548129 0  0.497488462074617 4.798956607735327 0  0.6128157578737968 4.853502356347138 0  0.7222413029254824 4.919089504006691 0  0.8247112694127393 4.995086410628442 0  0.9192388155425116 5.080761184457488 0  1.004913589371558 5.17528873058726 0  1.080910495993309 5.277758697074518 0  1.146497643652861 5.387184242126203 0  1.201043392264673 5.502511537925383 0  1.244022436451871 5.622629919569198 0  1.275020864524199 5.746382581379033 0  1.293740144673856 5.872577717571572 0  1.293740144673856 6.127422282428428 0  1.2750208645242 6.253617418620967 0  1.244022436451872 6.377370080430801 0  1.201043392264673 6.497488462074616 0  1.146497643652862 6.612815757873795 0  1.08091049599331 6.722241302925481 0  1.00491358937156 6.824711269412737 0  0.9192388155425134 6.91923881554251 0  0.8247112694127412 7.004913589371556 0  0.7222413029254846 7.080910495993308 0  0.6128157578737984 7.146497643652861 0  0.4974884620746181 7.201043392264673 0  0.3773700804308024 7.244022436451871 0  0.2536174186209674 7.275020864524199 0  0.127422282428429 7.293740144673856 0  0 7.6 0  0 7.5 0  0 7.4 0  0.1274222824284281 7.706259855326143 0  0.2536174186209668 7.724979135475801 0  0.3773700804308007 7.755977563548129 0  0.497488462074617 7.798956607735327 0  0.6128157578737968 7.853502356347138 0  0.7222413029254824 7.919089504006691 0  0.8247112694127393 7.995086410628442 0  0.9192388155425116 8.080761184457488 0  1.004913589371558 8.17528873058726 0  1.080910495993309 8.277758697074518 0  1.146497643652861 8.387184242126203 0  1.201043392264673 8.502511537925383 0  1.244022436451871 8.622629919569199 0  1.275020864524199 8.746382581379033 0  1.293740144673856 8.872577717571572 0  1.293740144673856 9.127422282428428 0  1.2750208645242 9.253617418620966 0  1.244022436451872 9.377370080430801 0  1.201043392264673 9.497488462074616 0  1.146497643652862 9.612815757873795 0  1.08091049599331 9.722241302925481 0  1.00491358937156 9.824711269412738 0  0.9192388155425134 9.91923881554251 0  0.8247112694127412 10.00491358937156 0  0.7222413029254846 10.08091049599331 0  0.6128157578737984 10.14649764365286 0  0.4974884620746181 10.20104339226467 0  0.3773700804308024 10.24402243645187 0  0.2536174186209674 10.2750208645242 0  0.127422282428429 10.29374014467386 0  0 10.6 0  0 10.5 0  0 10.4 0  0.1274222824284281 10.70625985532614 0  0.2536174186209668 10.7249791354758 0  0.3773700804308007 10.75597756354813 0  0.497488462074617 10.79895660773533 0  0.6128157578737968 10.85350235634714 0  0.7222413029254824 10.91908950400669 0  0.8247112694127393 10.99508641062844 0  0.9192388155425116 11.08076118445749 0  1.004913589371558 11.17528873058726 0  1.080910495993309 11.27775869707452 0  1.146497643652861 11.3871842421262 0  1.201043392264673 11.50251153792538 0  1.244022436451871 11.6226299195692 0  1.275020864524199 11.74638258137903 0  1.293740144673856 11.87257771757157 0  1.293740144673856 12.12742228242843 0  1.2750208645242 12.25361741862097 0  1.244022436451872 12.3773700804308 0  1.201043392264673 12.49748846207462 0  1.146497643652862 12.6128157578738 0  1.08091049599331 12.72224130292548 0  1.00491358937156 12.82471126941274 0  0.9192388155425134 12.91923881554251 0  0.8247112694127412 13.00491358937156 0  0.7222413029254846 13.08091049599331 0  0.6128157578737984 13.14649764365286 0  0.4974884620746181 13.20104339226467 0  0.3773700804308024 13.24402243645187 0  0.2536174186209674 13.2750208645242 0  0.127422282428429 13.29374014467386 0  0 13.6 0  0 13.5 0  0 13.4 0  0.1274222824284281 13.70625985532614 0  0.2536174186209668 13.7249791354758 0  0.3773700804308007 13.75597756354813 0  0.497488462074617 13.79895660773533 0  0.6128157578737968 13.85350235634714 0  0.7222413029254824 13.91908950400669 0  0.8247112694127393 13.99508641062844 0  0.9192388155425116 14.08076118445749 0  1.004913589371558 14.17528873058726 0  1.080910495993309 14.27775869707452 0  1.146497643652861 14.3871842421262 0  1.201043392264673 14.50251153792538 0  1.244022436451871 14.6226299195692 0  1.275020864524199 14.74638258137903 0  1.293740144673856 14.87257771757157 0  1.293740144673856 15.12742228242843 0  1.2750208645242 15.25361741862097 0  1.244022436451872 15.3773700804308 0  1.201043392264673 15.49748846207462 0  1.146497643652862 15.6128157578738 0  1.08091049599331 15.72224130292548 0  1.00491358937156 15.82471126941274 0  0.9192388155425134 15.91923881554251 0  0.8247112694127412 16.00491358937156 0  0.7222413029254846 16.08091049599331 0  0.6128157578737984 16.14649764365286 0  0.4974884620746181 16.20104339226467 0  0.3773700804308024 16.24402243645187 0  0.2536174186209674 16.2750208645242 0  0.127422282428429 16.29374014467385 0  0 17.87857142857143 0  0 17.75714285714286 0  0 17.63571428571429 0  0 17.51428571428571 0  0 17.39285714285714 0  0 17.27142857142857 0  0 17.15 0  0 17.02857142857143 0  0 16.90714285714286 0  0 16.78571428571428 0  0 16.66428571428571 0  0 16.54285714285714 0  0 16.42142857142857 0  17.8705035971223 18 0  17.7410071942446 18 0  17.61151079136691 18 0  17.48201438848921 18 0  17.35251798561151 18 0  17.22302158273381 18 0  17.09352517985612 18 0  16.96402877697842 18 0  16.83453237410072 18 0  16.70503597122302 18 0  16.57553956834532 18 0  16.44604316546762 18 0  16.31654676258993 18 0  16.18705035971223 18 0  16.05755395683453 18 0  15.92805755395683 18 0  15.79856115107913 18 0  15.66906474820144 18 0  15.53956834532374 18 0  15.41007194244604 18 0  15.28057553956834 18 0  15.15107913669064 18 0  15.02158273381295 18 0  14.89208633093525 18 0  14.76258992805755 18 0  14.63309352517985 18 0  14.50359712230215 18 0  14.37410071942446 18 0  14.24460431654676 18 0  14.11510791366906 18 0  13.98561151079136 18 0  13.85611510791366 18 0  13.72661870503597 18 0  13.59712230215827 18 0  13.46762589928057 18 0  13.33812949640287 18 0  13.20863309352517 18 0  13.07913669064748 18 0  12.94964028776977 18 0  12.82014388489208 18 0  12.69064748201438 18 0  12.56115107913668 18 0  12.43165467625898 18 0  12.30215827338128 18 0  12.17266187050359 18 0  12.04316546762589 18 0  11.91366906474819 18 0  11.78417266187049 18 0  11.65467625899279 18 0  11.52517985611509 18 0  11.3956834532374 18 0  11.2661870503597 18 0  11.136690647482 18 0  11.0071942446043 18 0  10.8776978417266 18 0  10.7482014388489 18 0  10.6187050359712 18 0  10.48920863309351 18 0  10.35971223021581 18 0  10.23021582733811 18 0  10.10071942446041 18 0  9.971223021582714 18 0  9.841726618705016 18 0  9.712230215827317 18 0  9.582733812949618 18 0  9.453237410071921 18 0  9.323741007194224 18 0  9.194244604316525 18 0  9.064748201438828 18 0  8.935251798561131 18 0  8.805755395683434 18 0  8.676258992805735 18 0  8.546762589928038 18 0  8.417266187050341 18 0  8.287769784172642 18 0  8.158273381294947 18 0  8.028776978417248 18 0  7.899280575539549 18 0  7.769784172661854 18 0  7.640287769784155 18 0  7.510791366906458 18 0  7.381294964028761 18 0  7.251798561151062 18 0  7.122302158273365 18 0  6.992805755395668 18 0  6.86330935251797 18 0  6.733812949640273 18 0  6.604316546762576 18 0  6.474820143884878 18 0  6.34532374100718 18 0  6.215827338129483 18 0  6.086330935251786 18 0  5.956834532374087 18 0  5.827338129496392 18 0  5.697
[...]
<PointData  Vectors="f_24"> 
<DataArray  type="Float64"  Name="f_24"  NumberOfComponents="3" format="ascii">-1.1432374176546854e-04 -8.5657284593454553e-05 0.0000000000000000e+00  0.0000000000000000e+00 0.0000000000000000e+00 0.0000000000000000e+00  -2.2916222113150526e-04 -7.5146910206624136e-04 0.0000000000000000e+00  -3.9310866361189556e-04 -1.3777867196001841e-03 0.0000000000000000e+00  -4.1402207896575380e-04 -1.3777707505018147e-03 0.0000000000000000e+00  -4.2355504039085276e-04 -1.8680832485786882e-03 0.0000000000000000e+00  -4.1498607815407805e-04 -2.3857414508992193e-03 0.0000000000000000e+00  -4.0047567224356601e-04 -2.3857194220599852e-03 0.0000000000000000e+00  -3.1283040082549535e-04 -3.0022786834410049e-03 0.0000000000000000e+00  -2.8880251564981078e-04 -3.5215671766518344e-03 0.0000000000000000e+00  -2.7225549430829666e-04 -3.5215445923151728e-03 0.0000000000000000e+00  -1.7151672799811909e-04 -4.1422703822173420e-03 0.0000000000000000e+00  -8.3902045856806075e-05 -4.5850016016766807e-03 0.0000000000000000e+00  -4.4847441542898462e-05 -4.5849826159873224e-03 0.0000000000000000e+00  1.4291361769976549e-04 -5.2846120472229662e-03 0.0000000000000000e+00  2.6841635371507980e-04 -5.9934091851948749e-03 0.0000000000000000e+00  2.0391985347247504e-04 -6.1255585675461226e-03 0.0000000000000000e+00  1.5968098731218934e-03 -8.0324589099516827e-03 0.0000000000000000e+00  8.4719019363536821e-04 -7.9527259159142428e-03 0.0000000000000000e+00  8.4954482446381106e-04 -5.6517046340995780e-03 0.0000000000000000e+00  8.6511049438055157e-04 -5.6517197566819319e-03 0.0000000000000000e+00  8.0176264618167070e-04 -4.4600545769424181e-03 0.0000000000000000e+00  7.6108211356807221e-04 -4.4600817968366100e-03 0.0000000000000000e+00  6.5304285013666175e-04 -2.9714727248851313e-03 0.0000000000000000e+00  6.4042877221924619e-04 -2.9714991271618560e-03 0.0000000000000000e+00  5.1198163406053195e-04 -1.6981145217038415e-03 0.0000000000000000e+00  4.7341441406096950e-04 -1.6981338787262689e-03 0.0000000000000000e+00  1.3112508905954430e-04 -9.9984903579184060e-05 0.0000000000000000e+00  0.0000000000000000e+00 0.0000000000000000e+00 0.0000000000000000e+00  -1.4966615426550956e-04 -7.4234322225218391e-04 0.0000000000000000e+00  -7.5948764187907397e-05 -7.3824726644336198e-04 0.0000000000000000e+00  -1.9574677514258478e-05 -7.3563106420644338e-04 0.0000000000000000e+00  -2.2712135676983291e-04 -1.9029871601167418e-03 0.0000000000000000e+00  -7.8903550177294998e-05 -1.9330230865925457e-03 0.0000000000000000e+00  8.7039454304654285e-05 -1.9587689949175616e-03 0.0000000000000000e+00  4.9588586816158783e-05 -7.5323081796160852e-04 0.0000000000000000e+00  1.3691548294082195e-04 -8.3157095244031293e-04 0.0000000000000000e+00  2.2434621485827863e-04 -2.0460181056957457e-03 0.0000000000000000e+00  4.4990606891600509e-04 -2.2316202418890168e-03 0.0000000000000000e+00  -1.6354453262886661e-04 -3.0862104430764668e-03 0.0000000000000000e+00  2.6855325460511422e-05 -4.2722493981022305e-03 0.0000000000000000e+00  2.7632680510990331e-05 -3.1413285917220681e-03 0.0000000000000000e+00  1.8156857496902143e-04 -3.1854008255877034e-03 0.0000000000000000e+00  1.6648794483659595e-04 -4.3533062032155732e-03 0.0000000000000000e+00  3.5222525285870881e-04 -4.4013250913165838e-03 0.0000000000000000e+00  2.4360578797599206e-04 -5.4642855659168500e-03 0.0000000000000000e+00  4.7170947658168526e-04 -5.5587217905453861e-03 0.0000000000000000e+00  5.8987665402094247e-04 -5.5902297530641210e-03 0.0000000000000000e+00  3.8034238586052429e-04 -3.3212320861547261e-03 0.0000000000000000e+00  4.4087046825529565e-04 -4.5870398342251883e-03 0.0000000000000000e+00  5.1276505969187101e-04 -3.6130908919051628e-03 0.0000000000000000e+00  7.4058229491042425e-04 -5.0074619743812748e-03 0.0000000000000000e+00  7.2357236789904968e-04 -5.7843331323957576e-03 0.0000000000000000e+00  4.9644021223300462e-04 -6.4618578647707928e-03 0.0000000000000000e+00  -1.1770716584327943e-04 -8.5855762547634829e-05 0.0000000000000000e+00  -1.2012721882792382e-04 -8.6570076229076334e-05 0.0000000000000000e+00  -1.2055505915530033e-04 -8.7124813504523268e-05 0.0000000000000000e+00  -1.1880262207688335e-04 -8.6986361448660672e-05 0.0000000000000000e+00  -1.1499798680666287e-04 -8.5796587028231136e-05 0.0000000000000000e+00  -1.0935545502890168e-04 -8.3403005440215038e-05 0.0000000000000000e+00  -1.0206097241182983e-04 -7.9759796066061398e-05 0.0000000000000000e+00  -9.3252603182381261e-05 -7.4837106280804987e-05 0.0000000000000000e+00  -8.2996952233753182e-05 -6.8596006119918135e-05 0.0000000000000000e+00  -7.1286724798334789e-05 -6.0934025466143012e-05 0.0000000000000000e+00  -5.8024486401399347e-05 -5.1635744862675963e-05 0.0000000000000000e+00  -4.2971720368427350e-05 -4.0224458588534666e-05 0.0000000000000000e+00  -2.5168179283852077e-05 -2.5557748022180180e-05 0.0000000000000000e+00  -1.1388912528784006e-04 -8.9096034647686252e-05 0.0000000000000000e+00  -1.1232011692249829e-04 -9.3907549737387482e-05 0.0000000000000000e+00  -1.1008928149870081e-04 -1.0201962488466173e-04 0.0000000000000000e+00  -1.0809936357965676e-04 -1.1456887847545592e-04 0.0000000000000000e+00  -1.0683135178308729e-04 -1.3209116307322339e-04 0.0000000000000000e+00  -1.0687906682267538e-04 -1.5497165180621391e-04 0.0000000000000000e+00  -1.0869298371282610e-04 -1.8341770680096396e-04 0.0000000000000000e+00  -1.1256274449333013e-04 -2.1767585929652363e-04 0.0000000000000000e+00  -1.1878167590823766e-04 -2.5804446469810907e-04 0.0000000000000000e+00  -1.2744559909846947e-04 -3.0499981904115242e-04 0.0000000000000000e+00  -1.3860427090502139e-04 -3.5924318888685004e-04 0.0000000000000000e+00  -1.5221520831192417e-04 -4.2155071525820794e-04 0.0000000000000000e+00  -1.6823414927321091e-04 -4.9276913928992367e-04 0.0000000000000000e+00  -1.8667372847906526e-04 -5.7289063383167925e-04 0.0000000000000000e+00  -2.0730678579103566e-04 -6.6010172750138949e-04 0.0000000000000000e+00  -2.5020914262020410e-04 -8.4168106472934520e-04 0.0000000000000000e+00  -2.6865253600273631e-04 -9.2669536675959834e-04 0.0000000000000000e+00  -2.8349662549799362e-04 -1.0043052831651916e-03 0.0000000000000000e+00  -2.9514434844064228e-04 -1.0738452293940757e-03 0.0000000000000000e+00  -3.0524059341446608e-04 -1.1357314659118593e-03 0.0000000000000000e+00  -3.1550132861635970e-04 -1.1902785522748074e-03 0.0000000000000000e+00  -3.2706913909958041e-04 -1.2372548135614005e-03 0.0000000000000000e+00  -3.4002374736766527e-04 -1.2760761663114617e-03 0.0000000000000000e+00  -3.5365233188557976e-04 -1.3062806585513920e-03 0.0000000000000000e+00  -3.6651384442400116e-04 -1.3280285980255113e-03 0.0000000000000000e+00  -3.7715282358428775e-04 -1.3425178813600946e-03 0.0000000000000000e+00  -3.8469182342367288e-04 -1.3519278795856482e-03 0.0000000000000000e+00  -3.8928684993654283e-04 -1.3587126777946008e-03 0.0000000000000000e+00  -3.9168946086363591e-04 -1.3648813675977013e-03 0.0000000000000000e+00  -3.9279275617991230e-04 -1.3712216312595465e-03 0.0000000000000000e+00  -4.0874980541562945e-04 -1.3777689094875425e-03 0.0000000000000000e+00  -4.0351182437976807e-04 -1.3777788258721236e-03 0.0000000000000000e+00  -3.9829286133707194e-04 -1.3777886214951147e-03 0.0000000000000000e+00  -4.1436035860953135e-04 -1.3710118950549036e-03 0.0000000000000000e+00  -4.1521546067690046e-04 -1.3641561350361687e-03 0.0000000000000000e+00  -4.1604876326880956e-04 -1.3573678658995393e-03 0.0000000000000000e+00  -4.1596908907591957e-04 -1.3516286740422286e-03 0.0000000000000000e+00  -4.1405755813064295e-04 -1.3489502274141990e-03 0.0000000000000000e+00  -4.1031949332184217e-04 -1.3521251005535334e-03 0.0000000000000000e+00  -4.0539751236185151e-04 -1.3633461544879644e-03 0.0000000000000000e+00  -4.0090667860284907e-04 -1.3841292450048046e-03 0.0000000000000000e+00  -3.9836989848700808e-04 -1.4147464395538412e-03 0.0000000000000000e+00  -3.9882753979979447e-04 -1.4547876784559361e-03 0.0000000000000000e+00  -4.0245087663862432e-04 -1.5036513974029339e-03 0.0000000000000000e+00  -4.0831932638505535e-04 -1.5608070930228813e-03 0.0000000000000000e+00  -4.1490079944766524e-04 -1.6264922386846235e-03 0.0000000000000000e+00  -4.2031604374542157e-04 -1.7004404900236765e-03 0.0000000000000000e+00  -4.2336412153628377e-04 -1.7819756646207721e-03 0.0000000000000000e+00  -4.2091062135051426e-04 -1.9545256687545950e-03 0.0000000000000000e+00  -4.1588365852679644e-04 -2.0367046095766256e-03 0.0000000000000000e+00  -4.0918218868769135e-04 -2.1119161236907908e-03 0.0000000000000000e+00  -4.0206047900277926e-04 -2.1788381926265785e-03 0.0000000000000000e+00  -3.9610740532339077e-04 -2.2375878245875160e-03 0.0000000000000000e+00  -3.9280794622751150e-04 -2.2881155596180427e-03 0.0000000000000000e+00  -3.9292224403316957e-04 -2.3300075260815388e-03 0.0000000000000000e+00  -3.9618352566545711e-04 -2.3626489597936540e-03 0.0000000000000000e+00  -4.0161330753574968e-04 -2.3855982043000305e-03 0.0000000000000000e+00  -4.0755676452766741e-04 -2.3990684177934542e-03 0.0000000000000000e+00  -4.1240903005240184e-04 -2.4043669947325721e-03 0.0000000000000000e+00  -4.1520395627475041e-04 -2.4038237809621060e-03 0.0000000000000000e+00  -4.1607009174087612e-04 -2.4000688012385829e-03 0.0000000000000000e+00  -4.1576561370016644e-04 -2.3952993449507542e-03 0.0000000000000000e+00  -4.1522353629468443e-04 -2.3904621476363392e-03 0.0000000000000000e+00  -4.0406048233133126e-04 -2.3857180067960800e-03 0.0000000000000000e+00  -4.0767972168636435e-04 -2.3857305370536988e-03 0.0000000000000000e+00  -4.1131543316927794e-04 -2.3857429396250598e-03 0.0000000000000000e+00  -4.0025854688387501e-04 -2.3902437458498279e-03 0.0000000000000000e+00  -3.9944380418494902e-04 -2.3945622783553295e-03 0.0000000000000000e+00  -3.9749290337978460e-04 -2.3987546317767818e-03 0.0000000000000000e+00  -3.9353858463752982e-04 -2.4037503816065849e-03 0.0000000000000000e+00  -3.8672561486064361e-04 -2.4115222008900769e-03 0.0000000000000000e+00  -3.7718657331648647e-04 -2.4247953954684332e-03 0.0000000000000000e+00  -3.6570717552010149e-04 -2.4456344910755525e-03 0.0000000000000000e+00  -3.5403042548896039e-04 -2.4753894510705079e-03 0.0000000000000000e+00  -3.4375698413236265e-04 -2.5141815663730993e-03 0.0000000000000000e+00  -3.3598333507245382e-04 -2.5615138343093222e-03 0.0000000000000000e+00  -3.3096036188020775e-04 -2.6167691689799413e-03 0.0000000000000000e+00  -3.2794146698252020e-04 -2.6794970199713682e-03 0.0000000000000000e+00  -3.2569506099559793e-04 -2.7500277727395212e-03 0.0000000000000000e+00  -3.2281969278342786e-04 -2.8281342280961621e-03 0.0000000000000000e+00  -3.1856105741115052e-04 -2.9132216259838261e-03 0.0000000000000000e+00  -3.0578822525217144e-04 -3.0910750387101392e-03 0.0000000000000000e+00  -2.9773382057380216e-04 -3.1748593738128729e-03 0.0000000000000000e+00  -2.8901069771686901e-04 -3.2512180007282696e-03 0.0000000000000000e+00  -2.8046314273242115e-04 -3.3189180885134614e-03 0.0000000000000000e+00  -2.7353001690072086e-04 -3.3779834866606829e-03 0.0000000000000000e+00  -2.6949064794477829e-04 -3.4286349391303862e-03 0.0000000000000000e+00  -2.6901310111176904e-04 -3.4704639285866663e-03 0.0000000000000000e+00  -2.7183402618586000e-04 -3.5028895466279260e-03 0.0000000000000000e+00  -2.7683572410912565e-04 -3.5254932319273395e-03 0.0000000000000000e+00  -2.8241789612780665e-04 -3.5385300892961219e-03 0.0000000000000000e+00  -2.8699507960936284e-04 -3.5432812112154966e-03 0.0000000000000000e+00  -2.8950869848089070e-04 -3.5421789442095278e-03 0.0000000000000000e+00  -2.9016784528024736e-04 -3.5378297831196253e-03 0.0000000000000000e+00  -2.8970955987549430e-04 -3.5324168787229937e-03 0.0000000000000000e+00  -2.8907155129607418e-04 -3.5269365701898997e-03 0.0000000000000000e+00  -2.7634959012313342e-04 -3.5215432462604415e-03 0.0000000000000000e+00  -2.8047808390939280e-04 -3.5215560465212833e-03 0.0000000000000000e+00  -2.8462298657360807e-04 -3.5215686244243951e-03 0.0000000000000000e+00  -2.7200637352451219e-04 -3.5267177930262414e-03 0.0000000000000000e+00  -2.7109521449304144e-04 -3.5316796335428994e-03 0.0000000000000000e+00  -2.6898644485467575e-04 -3.5365028603584693e-03 0.0000000000000000e+00  -2.6480968819050417e-04 -3.5421160032033700e-03 0.0000000000000000e+00  -2.5770397973827892e-04 -3.5504792675310972e-03 0.0000000000000000e+00  -2.4778978358723437e-04 -3.5643269446771100e-03 0.0000000000000000e+00  -2.3589229789012476e-04 -3.5857458407787964e-03 0.0000000000000000e+00  -2.2377144532491618e-04 -3.6160263045816373e-03 0.0000000000000000e+00  -2.1297684829557983e-04 -3.6552602794871600e-03 0.0000000000000000e+00  -2.0461300945351130e-04 -3.7029795233368382e-03 0.0000000000000000e+00  -1.9886547836278013e-04 -3.7584724898834772e-03 0.0000000000000000e+00  -1.9497101226561585e-04 -3.8214330059641367e-03 0.0000000000000000e+00  -1.9150854597298669e-04 -3.8918941313778087e-03 0.0000000000000000e+00  -1.8698877637585016e-04 -3.9697075286961574e-03 0.0000000000000000e+00  -1.8042131755417672e-04 -4.0541871544546876e-03 0.0000000000000000e+00  -1.6035594094315016e-04 -4.2296933568473916e-03 0.0000000000000000e+00  -1.4734614719444659e-04 -4.3116952611899195e-03 0.0000000000000000e+00  -1.3308004468860711e-04 -4.3858239263176143e-03 0.0000000000000000e+00  -1.1870042985131573e-04 -4.4508202124996111e-03 0.0000000000000000e+00  -1.0590982354881011e-04 -4.5066653947447109e-03 0.0000000000000000e+00  -9.6178821453691052e-05 -4.5535427926688393e-03 0.0000000000000000e+00  -9.0298150494093351e-05 -4.5910217953100312e-03 0.0000000000000000e+00  -8.8075536902382633e-05 -4.6185294015518704e-03 0.0000000000000000e+00  -8.8442540064131956e-05 -4.6356894459290377e-03 0.0000000000000000e+00  -8.9848772884918430e-05 -4.6428284512645395e-03 0.0000000000000000e+00  -9.0767866171497977e-05 -4.6413116428598751e-03 0.0000000000000000e+00  -9.0207801728008552e-05 -4.6336486607829784e-03 0.0000000000000000e+00  -8.8433135880178622e-05 -4.6225079452612379e-03 0.0000000000000000e+00  -8.6219816251411293e-05 -4.6101226439444988e-03 0.0000000000000000e+00  -8.4524209334709403e-05 -4.5975408781114835e-03 0.0000000000000000e+00  -5.4567812409806475e-05 -4.5849807451007517e-03 0.0000000000000000e+00  -6.4322690840398070e-05 -4.5849922716211435e-03 0.0000000000000000e+00  -7.4095002669142659e-05 -4.5850035778102032e-03 0.0000000000000000e+00  -4.4246963188058327e-05 -4.5973257698533922e-03 0.0000000000000000e+00  -4.2286759259163185e-05 -4.6093879326318758e-03 0.0000000000000000e+00  -3.8444878859293554e-05 -4.6211658004401126e-03 0.0000000000000000e+00  -3.1866188005071346e-05 -4.6335044137575786e-03 0.0000000000000000e+00  -2.1701555501589926e-05 -4.6482796340869877e-03 0.0000000000000000e+00  -8.0686598900123111e-06 -4.6681473276611058e-03 0.0000000000000000e+00  8.2179788079664102e-06 -4.6951316077565161e-03 0.0000000000000000e+00  2.5425278445980450e-05 -4.7304753643184890e-03 0.0000000000000000e+00  4.2043446090326601e-05 -4.7742423745806475e-03 0.0000000000000000e+00  5.7022414626286027e-05 -4.8259622151088965e-03 0.0000000000000000e+00  7.0231896652352368e-05 -4.8849636589477696e-03 0.0000000000000000e+00  8.2466401103821672e-05 -4.9510254169529205e-03 0.0000000000000000e+00  9.5081987421512211e-05 -5.0243497533363048e-03 0.0000000000000000e+00  1.0929214309910210e-04 -5.1050520831276988e-03 0.0000000000000000e+00  1.2547675537541550e-04 -5.1927823585481876e-03 0.0000000000000000e+00  1.6042960259253581e-04 -5.3764827720542575e-03 0.0000000000000000e+00  1.7702209831109019e-04 -5.4633269088139374e-03 0.0000000000000000e+00  1.9242268289282951e-04 -5.5423224564351923e-03 0.0000000000000000e+00  2.0674522539190706e-04 -5.6118350307265558e-03 0.0000000000000000e+00  2.2022163597191011e-04 -5.6721966428802239e-03 0.0000000000000000e+00  2.3280492862066528e-04 -5.7246440426955937e-03 0.0000000000000000e+00  2.4426024567916879e-04 -5.7705131207098906e-03 0.0000000000000000e+00  2.5424291855545415e-04 -5.8110141398070754e-03 0.0000000000000000e+00  2.6237442626236954e-04 -5.8470795970524151e-03 0.0000000000000000e+00  2.6839472743179485e-04 -5.8792664335286906e-03 0.0000000000000000e+00  2.7213132113706936e-04 -5.9078438601647461e-03 0.0000000000000000e+00  2.7359002022932477e-04 -5.9327176327034657e-03 0.0000000000000000e+00  2.7311982774119655e-04 -5.9536566192814524e-03 0.0000000000000000e+00  2.7124130664967898e-04 -5.9703962533443787e-03 0.0000000000000000e+00  2.6922886353365207e-04 -5.9831245513681077e-03 0.0000000000000000e+00  2.1390813256762291e-04 -6.1081618696191735e-03 0.0000000000000000e+00  2.2233396008043617e-04 -6.0908348326286672e-03 0.0000000000000000e+00  2.2897536057191233e-04 -6.0739317208570523e-03 0.0000000000000000e+00  2.3384088423566724e-04 -6.0578340822282353e-03 0.0000000000000000e+00  2.3709296883768911e-04 -6.0429372165566354e-03 0.0000000000000000e+00  2.3902789703182970e-04 -6.0295796491574433e-03 0.0000000000000000e+00  2.4005172734589792e-04 -6.0180520740166690e-03 0.0000000000000000e+00  2.4065998487689475e-04 -6.0085886561727798e-03 0.0000000000000000e+00  2.4142618332289242e-04 -6.0013525070867230e-03 0.0000000000000000e+00  2.4297975408595228e-04 -5.9964090510330036e-03 0.0000000000000000e+00  2.4601881844093528e-04 -5.9936993340119959e-03 0.0000000000000000e+00  2.5120756679347932e-04 -5.9928452926710108e-03 0.0000000000000000e+00  2.5891856438920385e-04 -5.9931652922729107e-03 0.0000000000000000e+00  1.5933944367728409e-03 -7.9911123166315316e-03 0.0000000000000000e+00  1.5898136752158436e-03 -7.9492572232654612e-03 0.0000000000000000e+00  1.5865322606752733e-03 -7.9026912780104843e-03 0.0000000000000000e+00  1.5828713144148917e-03 -7.8485909243822330e-03 0.0000000000000000e+00  1.5773835717307360e-03 -7.7871796595855129e-03 0.0000000000000000e+00  1.5691459037802471e-03 -7.7215743906688958e-03 0.0000000000000000e+00  1.5582488201617186e-03 -7.6556346256513256e-03 0.0000000000000000e+00  1.5452593752300848e-03 -7.5913175224333468e-03 0.0000000000000000e+00  1.5307188822826622e-03 -7.5286158033396194e-03 0.0000000000000000e+00  1.5150263294211954e-03 -7.4677843723634360e-03 0.0000000000000000e+00  1.4985936169163365e-03 -7.4087130818367170e-03 0.0000000000000000e+00  1.4818573335514808e-03 -7.3506376650558543e-03 0.0000000000000000e+00  1.4649933672719250e-03 -7.2925337522851356e-03 0.0000000000000000e+00  1.4479482825887392e-03 -7.2336430660138364e-03 0.0000000000000000e+00  1.4305017393277740e-03 -7.1739839139401546e-03 0.0000000000000000e+00  1.4124621221254766e-03 -7.1147090274554618e-03 0.0000000000000000e+00  1.3939456507072903e-03 -7.0577153872535357e-03 0.0000000000000000e+00  1.3755668045656549e-03 -7.0037429485426588e-03 0.0000000000000000e+00  1.3576549174433433e-03 -6.9516068194164799e-03 0.0000000000000000e+00  1.3401097611526363e-03 -6.8994501773832978e-03 0.0000000000000000e+00  1.3223037048366137e-03 -6.8461244861363147e-03 0.0000000000000000e+00  1.3033387683902033e-03 -6.7922173600403271e-03 0.0000000000000000e+00  1.2823925779953105e-03 -6.7407078365014882e-03 0.0000000000000000e+00  1.2598987313765613e-03 -6.6972207756213434e-03 0.0000000000000000e+00  1.2368261987756291e-03 -6.6605550410874809e-03 0.0000000000000000e+00  1.2129806564536165e-03 -6.6309253383630851e-03 0.0000000000000000e+00  1.1885911886197760e-03 -6.6107820302241374e-03 0.0000000000000000e+00  1.1646861807714094e-03 -6.6012209681547999e-03 0.0000000000000000e+00  1.1425602880015230e-03 -6.6004006813941427e-03 0.0000000000000000e+00  1.1227747814616003e-03 -6.6044236217797014e-03 0.0000000000000000e+00  1.1053456055032504e-03 -6.6093321410873327e-03 0.0000000000000000e+00  1.0900200479197002e-03 -6.6124137566716578e-03 0.0000000000000000e+00  1.0762046590971999e-03 -6.6110636393718961e-03 0.0000000000000000e+00  1.0632710926999254e-03 -6.6040560704492103e-03 0.0000000000000000e+00  1.0503266556741082e-03 -6.5922129935020723e-03 0.0000000000000000e+00  1.0369762339301795e-03 -6.5780621055659509e-03 0.00000000