<?xml version="1.0"?>
<VTKFile type="UnstructuredGrid"  version="0.1"  >
<UnstructuredGrid>
<Piece  NumberOfPoints="12853" NumberOfCells="23493">
<Points>
<DataArray  type="Float64"  NumberOfComponents="3"  format="ascii">-3.187178156719634e-14 1.7 0  0 0 0  1.3 3 0  -3.185690647650846e-14 4.300000000000001 0  -3.187178156719634e-14 4.699999999999999 0  1.3 6 0  -3.185690647650846e-14 7.300000000000001 0  -3.187178156719634e-14 7.699999999999999 0  1.3 9 0  -3.185690647650846e-14 10.3 0  -3.187178156719634e-14 10.7 0  1.3 12 0  -3.185690647650846e-14 13.3 0  -3.187178156719634e-14 13.7 0  1.3 15 0  -3.185690647650846e-14 16.3 0  0 18 0  18 18 0  17.99999999999997 16.3 0  17.99999999999997 13.7 0  17.99999999999997 13.3 0  17.99999999999997 10.7 0  17.99999999999997 10.3 0  17.99999999999997 7.7 0  17.99999999999997 7.3 0  17.99999999999997 4.7 0  17.99999999999997 4.3 0  17.99999999999997 1.7 0  18 0 0  4.3 3 0  7.3 3 0  10.3 3 0  4.3 6 0  7.3 6 0  10.3 6 0  13.3 3 0  16.3 3 0  13.3 6 0  16.3 6 0  4.3 9 0  4.3 12 0  7.3 9 0  10.3 9 0  7.3 12 0  10.3 12 0  4.3 15 0  7.3 15 0  10.3 15 0  13.3 9 0  13.3 12 0  16.3 9 0  16.3 12 0  13.3 15 0  16.3 15 0  0 1.578571428571429 0  0 1.457142857142856 0  0 1.335714285714285 0  0 1.214285714285712 0  0 1.092857142857142 0  0 0.9714285714285715 0  0 0.8499999999999979 0  0 0.7285714285714278 0  0 0.6071428571428577 0  0 0.485714285714284 0  0 0.3642857142857139 0  0 0.2428571428571438 0  0 0.1214285714285701 0  0.1274222824284281 1.706259855326144 0  0.2536174186209668 1.7249791354758 0  0.3773700804308007 1.755977563548128 0  0.497488462074617 1.798956607735327 0  0.6128157578737968 1.853502356347138 0  0.7222413029254824 1.919089504006691 0  0.8247112694127393 1.995086410628442 0  0.9192388155425116 2.080761184457488 0  1.004913589371558 2.17528873058726 0  1.080910495993309 2.277758697074517 0  1.146497643652861 2.387184242126203 0  1.201043392264673 2.502511537925383 0  1.244022436451871 2.622629919569199 0  1.275020864524199 2.746382581379033 0  1.293740144673856 2.872577717571571 0  1.293740144673856 3.127422282428428 0  1.2750208645242 3.253617418620966 0  1.244022436451872 3.3773700804308 0  1.201043392264673 3.497488462074616 0  1.146497643652862 3.612815757873796 0  1.08091049599331 3.722241302925481 0  1.00491358937156 3.824711269412738 0  0.9192388155425134 3.91923881554251 0  0.8247112694127412 4.004913589371556 0  0.7222413029254846 4.080910495993308 0  0.6128157578737984 4.146497643652861 0  0.4974884620746181 4.201043392264673 0  0.3773700804308024 4.244022436451871 0  0.2536174186209674 4.275020864524199 0  0.127422282428429 4.293740144673856 0  0 4.6 0  0 4.5 0  0 4.4 0  0.1274222824284281 4.706259855326143 0  0.2536174186209668 4.724979135475801 0  0.3773700804308007 4.755977563548129 0  0.497488462074617 4.798956607735327 0  0.6128157578737968 4.853502356347138 0  0.7222413029254824 4.919089504006691 0  0.8247112694127393 4.995086410628442 0  0.9192388155425116 5.080761184457488 0  1.004913589371558 5.17528873058726 0  1.080910495993309 5.277758697074518 0  1.146497643652861 5.387184242126203 0  1.201043392264673 5.502511537925383 0  1.244022436451871 5.622629919569198 0  1.275020864524199 5.746382581379033 0  1.293740144673856 5.872577717571572 0  1.293740144673856 6.127422282428428 0  1.2750208645242 6.253617418620967 0  1.244022436451872 6.377370080430801 0  1.201043392264673 6.497488462074616 0  1.146497643652862 6.612815757873795 0  1.08091049599331 6.722241302925481 0  1.00491358937156 6.824711269412737 0  0.9192388155425134 6.91923881554251 0  0.8247112694127412 7.004913589371556 0  0.7222413029254846 7.080910495993308 0  0.6128157578737984 7.146497643652861 0  0.4974884620746181 7.201043392264673 0  0.3773700804308024 7.244022436451871 0  0.2536174186209674 7.275020864524199 0  0.127422282428429 7.293740144673856 0  0 7.6 0  0 7.5 0  0 7.4 0  0.1274222824284281 7.706259855326143 0  0.2536174186209668 7.724979135475801 0  0.3773700804308007 7.755977563548129 0  0.497488462074617 7.798956607735327 0  0.6128157578737968 7.853502356347138 0  0.7222413029254824 7.919089504006691 0  0.8247112694127393 7.995086410628442 0  0.9192388155425116 8.080761184457488 0  1.004913589371558 8.17528873058726 0  1.080910495993309 8.277758697074518 0  1.146497643652861 8.387184242126203 0  1.201043392264673 8.502511537925383 0  1.244022436451871 8.622629919569199 0  1.275020864524199 8.746382581379033 0  1.293740144673856 8.872577717571572 0  1.293740144673856 9.127422282428428 0  1.2750208645242 9.253617418620966 0  1.244022436451872 9.377370080430801 0  1.201043392264673 9.497488462074616 0  1.146497643652862 9.612815757873795 0  1.08091049599331 9.722241302925481 0  1.00491358937156 9.824711269412738 0  0.9192388155425134 9.91923881554251 0  0.8247112694127412 10.00491358937156 0  0.7222413029254846 10.08091049599331 0  0.6128157578737984 10.14649764365286 0  0.4974884620746181 10.20104339226467 0  0.3773700804308024 10.24402243645187 0  0.2536174186209674 10.2750208645242 0  0.127422282428429 10.29374014467386 0  0 10.6 0  0 10.5 0  0 10.4 0  0.1274222824284281 10.70625985532614 0  0.2536174186209668 10.7249791354758 0  0.3773700804308007 10.75597756354813 0  0.497488462074617 10.79895660773533 0  0.6128157578737968 10.85350235634714 0  0.7222413029254824 10.91908950400669 0  0.8247112694127393 10.99508641062844 0  0.9192388155425116 11.08076118445749 0  1.004913589371558 11.17528873058726 0  1.080910495993309 11.27775869707452 0  1.146497643652861 11.3871842421262 0  1.201043392264673 11.50251153792538 0  1.244022436451871 11.6226299195692 0  1.275020864524199 11.74638258137903 0  1.293740144673856 11.87257771757157 0  1.293740144673856 12.12742228242843 0  1.2750208645242 12.25361741862097 0  1.244022436451872 12.3773700804308 0  1.201043392264673 12.49748846207462 0  1.146497643652862 12.6128157578738 0  1.08091049599331 12.72224130292548 0  1.00491358937156 12.82471126941274 0  0.9192388155425134 12.91923881554251 0  0.8247112694127412 13.00491358937156 0  0.7222413029254846 13.08091049599331 0  0.6128157578737984 13.14649764365286 0  0.4974884620746181 13.20104339226467 0  0.3773700804308024 13.24402243645187 0  0.2536174186209674 13.2750208645242 0  0.127422282428429 13.29374014467386 0  0 13.6 0  0 13.5 0  0 13.4 0  0.1274222824284281 13.70625985532614 0  0.2536174186209668 13.7249791354758 0  0.3773700804308007 13.75597756354813 0  0.497488462074617 13.79895660773533 0  0.6128157578737968 13.85350235634714 0  0.7222413029254824 13.91908950400669 0  0.8247112694127393 13.99508641062844 0  0.9192388155425116 14.08076118445749 0  1.004913589371558 14.17528873058726 0  1.080910495993309 14.27775869707452 0  1.146497643652861 14.3871842421262 0  1.201043392264673 14.50251153792538 0  1.244022436451871 14.6226299195692 0  1.275020864524199 14.74638258137903 0  1.293740144673856 14.87257771757157 0  1.293740144673856 15.12742228242843 0  1.2750208645242 15.25361741862097 0  1.244022436451872 15.3773700804308 0  1.201043392264673 15.49748846207462 0  1.146497643652862 15.6128157578738 0  1.08091049599331 15.72224130292548 0  1.00491358937156 15.82471126941274 0  0.9192388155425134 15.91923881554251 0  0.8247112694127412 16.00491358937156 0  0.7222413029254846 16.08091049599331 0  0.6128157578737984 16.14649764365286 0  0.4974884620746181 16.20104339226467 0  0.3773700804308024 16.24402243645187 0  0.2536174186209674 16.2750208645242 0  0.127422282428429 16.29374014467385 0  0 17.87857142857143 0  0 17.75714285714286 0  0 17.63571428571429 0  0 17.51428571428571 0  0 17.39285714285714 0  0 17.27142857142857 0  0 17.15 0  0 17.02857142857143 0  0 16.90714285714286 0  0 16.78571428571428 0  0 16.66428571428571 0  0 16.54285714285714 0  0 16.42142857142857 0  17.8705035971223 18 0  17.7410071942446 18 0  17.61151079136691 18 0  17.48201438848921 18 0  17.35251798561151 18 0  17.22302158273381 18 0  17.09352517985612 18 0  16.96402877697842 18 0  16.83453237410072 18 0  16.70503597122302 18 0  16.57553956834532 18 0  16.44604316546762 18 0  16.31654676258993 18 0  16.18705035971223 18 0  16.05755395683453 18 0  15.92805755395683 18 0  15.79856115107913 18 0  15.66906474820144 18 0  15.53956834532374 18 0  15.41007194244604 18 0  15.28057553956834 18 0  15.15107913669064 18 0  15.02158273381295 18 0  14.89208633093525 18 0  14.76258992805755 18 0  14.63309352517985 18 0  14.50359712230215 18 0  14.37410071942446 18 0  14.24460431654676 18 0  14.11510791366906 18 0  13.98561151079136 18 0  13.85611510791366 18 0  13.72661870503597 18 0  13.59712230215827 18 0  13.46762589928057 18 0  13.33812949640287 18 0  13.20863309352517 18 0  13.07913669064748 18 0  12.94964028776977 18 0  12.82014388489208 18 0  12.69064748201438 18 0  12.56115107913668 18 0  12.43165467625898 18 0  12.30215827338128 18 0  12.17266187050359 18 0  12.04316546762589 18 0  11.91366906474819 18 0  11.78417266187049 18 0  11.65467625899279 18 0  11.52517985611509 18 0  11.3956834532374 18 0  11.2661870503597 18 0  11.136690647482 18 0  11.0071942446043 18 0  10.8776978417266 18 0  10.7482014388489 18 0  10.6187050359712 18 0  10.48920863309351 18 0  10.35971223021581 18 0  10.23021582733811 18 0  10.10071942446041 18 0  9.971223021582714 18 0  9.841726618705016 18 0  9.712230215827317 18 0  9.582733812949618 18 0  9.453237410071921 18 0  9.323741007194224 18 0  9.194244604316525 18 0  9.064748201438828 18 0  8.935251798561131 18 0  8.805755395683434 18 0  8.676258992805735 18 0  8.546762589928038 18 0  8.417266187050341 18 0  8.287769784172642 18 0  8.158273381294947 18 0  8.028776978417248 18 0  7.899280575539549 18 0  7.769784172661854 18 0  7.640287769784155 18 0  7.510791366906458 18 0  7.381294964028761 18 0  7.251798561151062 18 0  7.122302158273365 18 0  6.992805755395668 18 0  6.86330935251797 18 0  6.733812949640273 18 0  6.604316546762576 18 0  6.474820143884878 18 0  6.34532374100718 18 0  6.215827338129483 18 0  6.086330935251786 18 0  5.956834532374087 18 0  5.827338129496392 18 0  5.697
[...]
<PointData  Vectors="f_21"> 
<DataArray  type="Float64"  Name="f_21"  NumberOfComponents="3" format="ascii">-2.6705446913898845e-03 -1.9954361332151370e-03 0.0000000000000000e+00  0.0000000000000000e+00 0.0000000000000000e+00 0.0000000000000000e+00  -4.7076249703000093e-03 -1.7541052222377632e-02 0.0000000000000000e+00  -6.7157466719814426e-03 -3.0620753287814172e-02 0.0000000000000000e+00  -6.6826982777086364e-03 -3.0620419560763959e-02 0.0000000000000000e+00  -4.0236438249411401e-03 -4.3633930050918070e-02 0.0000000000000000e+00  6.7610349362902931e-04 -5.2417210995155207e-02 0.0000000000000000e+00  2.1942173003008424e-03 -5.2419626061837025e-02 0.0000000000000000e+00  9.9070698906238812e-03 -7.0752865010706018e-02 0.0000000000000000e+00  1.6739945434888947e-02 -7.9333467847924097e-02 0.0000000000000000e+00  1.8605986065133768e-02 -7.9337331900873401e-02 0.0000000000000000e+00  2.8711391985229550e-02 -9.8893806190946204e-02 0.0000000000000000e+00  4.1159083974507765e-02 -1.0275017545913459e-01 0.0000000000000000e+00  4.4681688704596517e-02 -1.0276533498323889e-01 0.0000000000000000e+00  6.1918317135534251e-02 -1.2901576555131847e-01 0.0000000000000000e+00  7.0824104832761914e-02 -1.5258174661813359e-01 0.0000000000000000e+00  6.7038063966671516e-02 -1.5665720350160212e-01 0.0000000000000000e+00  1.3292502574859000e-01 -3.3855260348657690e-01 0.0000000000000000e+00  7.3015797184372899e-02 -3.3320435238989293e-01 0.0000000000000000e+00  6.0407249773082615e-02 -2.1860414618632973e-01 0.0000000000000000e+00  6.0055045600028382e-02 -2.1860424506129159e-01 0.0000000000000000e+00  4.7989989472082321e-02 -1.8006268396987879e-01 0.0000000000000000e+00  4.3441565505174681e-02 -1.8003789563765946e-01 0.0000000000000000e+00  3.0273565716759394e-02 -1.1551460049331963e-01 0.0000000000000000e+00  2.8843452484087213e-02 -1.1551290505421744e-01 0.0000000000000000e+00  1.9488827371530893e-02 -6.6650314313713918e-02 0.0000000000000000e+00  1.7282809197003778e-02 -6.6645030692667959e-02 0.0000000000000000e+00  4.5671339981855075e-03 -3.5884802670293407e-03 0.0000000000000000e+00  0.0000000000000000e+00 0.0000000000000000e+00 0.0000000000000000e+00  -2.6955182055724666e-03 -1.7799968871979203e-02 0.0000000000000000e+00  -1.1202674808787059e-03 -1.7983329433316854e-02 0.0000000000000000e+00  -7.2620682677980908e-04 -2.0054243478098970e-02 0.0000000000000000e+00  1.3298928068478668e-03 -4.5403530569039875e-02 0.0000000000000000e+00  3.9134222534515008e-03 -4.6856047663092169e-02 0.0000000000000000e+00  7.9041268632454881e-03 -5.2990255480534175e-02 0.0000000000000000e+00  1.0239857771850523e-03 -2.4248738454206838e-02 0.0000000000000000e+00  3.4821373555521929e-03 -3.1392098295736408e-02 0.0000000000000000e+00  9.7695607880258738e-03 -6.5703337540958168e-02 0.0000000000000000e+00  1.9126896394621486e-02 -8.3727066462406949e-02 0.0000000000000000e+00  1.3153203559116144e-02 -7.3653142578705436e-02 0.0000000000000000e+00  3.4806905071334188e-02 -1.0179240122548215e-01 0.0000000000000000e+00  1.7846060882756181e-02 -7.5623797212968330e-02 0.0000000000000000e+00  1.9332717130455982e-02 -8.5851484318734267e-02 0.0000000000000000e+00  3.5738320204034078e-02 -1.0379125509980010e-01 0.0000000000000000e+00  4.0029221580745344e-02 -1.1789380290622851e-01 0.0000000000000000e+00  6.3511556757145468e-02 -1.2990065548942081e-01 0.0000000000000000e+00  6.6571126914378775e-02 -1.3032460416141103e-01 0.0000000000000000e+00  6.3307065491993525e-02 -1.4808172685982943e-01 0.0000000000000000e+00  2.6221986436908675e-02 -1.0603774807846485e-01 0.0000000000000000e+00  3.7131327700681158e-02 -1.4635958720478437e-01 0.0000000000000000e+00  2.6676635996175136e-02 -1.3602268994296521e-01 0.0000000000000000e+00  5.3103559097619754e-02 -1.8969572109215868e-01 0.0000000000000000e+00  6.5767635132048030e-02 -1.8268182874617939e-01 0.0000000000000000e+00  4.5234366974065097e-02 -2.4727298809296205e-01 0.0000000000000000e+00  -2.7531289761384575e-03 -2.0000441261811609e-03 0.0000000000000000e+00  -2.8135992572951131e-03 -2.0170723233241174e-03 0.0000000000000000e+00  -2.8275313219852981e-03 -2.0309863589776131e-03 0.0000000000000000e+00  -2.7901043413387796e-03 -2.0292518275121536e-03 0.0000000000000000e+00  -2.7040132545433459e-03 -2.0033284125009717e-03 0.0000000000000000e+00  -2.5740927863080066e-03 -1.9494395818187044e-03 0.0000000000000000e+00  -2.4045982335945122e-03 -1.8663580195009541e-03 0.0000000000000000e+00  -2.1987227565705421e-03 -1.7532164809244966e-03 0.0000000000000000e+00  -1.9580204751172663e-03 -1.6089576809878337e-03 0.0000000000000000e+00  -1.6823436437200222e-03 -1.4310333903659949e-03 0.0000000000000000e+00  -1.3694620695987689e-03 -1.2142335042535264e-03 0.0000000000000000e+00  -1.0138840877930487e-03 -9.4716576438689756e-04 0.0000000000000000e+00  -5.9317958476287516e-04 -6.0265360706753229e-04 0.0000000000000000e+00  -2.6602431615697698e-03 -2.0791976835571120e-03 0.0000000000000000e+00  -2.6226349268258019e-03 -2.1944381155515574e-03 0.0000000000000000e+00  -2.5682767779728276e-03 -2.3864834790558488e-03 0.0000000000000000e+00  -2.5179715014255299e-03 -2.6823661458521371e-03 0.0000000000000000e+00  -2.4826672389747801e-03 -3.0949233151206230e-03 0.0000000000000000e+00  -2.4758520738242039e-03 -3.6333398952685773e-03 0.0000000000000000e+00  -2.5074810300073909e-03 -4.3024572446761960e-03 0.0000000000000000e+00  -2.5834083062216905e-03 -5.1077932385644774e-03 0.0000000000000000e+00  -2.7091277216326581e-03 -6.0558339374143467e-03 0.0000000000000000e+00  -2.8847877226663207e-03 -7.1569634433298873e-03 0.0000000000000000e+00  -3.1083878420083886e-03 -8.4265084478079393e-03 0.0000000000000000e+00  -3.3744286712445080e-03 -9.8814982850092981e-03 0.0000000000000000e+00  -3.6760611449902542e-03 -1.1540441418846283e-02 0.0000000000000000e+00  -4.0073983909516770e-03 -1.3402388786687513e-02 0.0000000000000000e+00  -4.3586944436659744e-03 -1.5425152968631662e-02 0.0000000000000000e+00  -5.0138622293431573e-03 -1.9627702222547727e-02 0.0000000000000000e+00  -5.2471312270689231e-03 -2.1590754629045496e-02 0.0000000000000000e+00  -5.3963335776381696e-03 -2.3377580430170818e-02 0.0000000000000000e+00  -5.4807520238537152e-03 -2.4969519871577552e-02 0.0000000000000000e+00  -5.5451239481931923e-03 -2.6372609471008845e-02 0.0000000000000000e+00  -5.6321385496815035e-03 -2.7590365813108513e-02 0.0000000000000000e+00  -5.7680887187842875e-03 -2.8613868998364753e-02 0.0000000000000000e+00  -5.9524539646831258e-03 -2.9427711034107327e-02 0.0000000000000000e+00  -6.1661936182875951e-03 -3.0021309614703600e-02 0.0000000000000000e+00  -6.3737524507277016e-03 -3.0400801883813319e-02 0.0000000000000000e+00  -6.5407684726541829e-03 -3.0597732371561544e-02 0.0000000000000000e+00  -6.6476474584724601e-03 -3.0666654759337251e-02 0.0000000000000000e+00  -6.6994933703517032e-03 -3.0667805026410748e-02 0.0000000000000000e+00  -6.7152361884411458e-03 -3.0650151238249185e-02 0.0000000000000000e+00  -6.7165418982184253e-03 -3.0633584616210619e-02 0.0000000000000000e+00  -6.6898997985140466e-03 -3.0620375062398553e-02 0.0000000000000000e+00  -6.6979189104248247e-03 -3.0620588771589598e-02 0.0000000000000000e+00  -6.7064184371928865e-03 -3.0620799517867617e-02 0.0000000000000000e+00  -6.6824490723215845e-03 -3.0628649130813191e-02 0.0000000000000000e+00  -6.6780690080272759e-03 -3.0632934690759943e-02 0.0000000000000000e+00  -6.6571129286240724e-03 -3.0635354864122090e-02 0.0000000000000000e+00  -6.5987930502933783e-03 -3.0657173835616877e-02 0.0000000000000000e+00  -6.4816251546646964e-03 -3.0743975025800705e-02 0.0000000000000000e+00  -6.3056245442663804e-03 -3.0959737058481405e-02 0.0000000000000000e+00  -6.0855440292936639e-03 -3.1354237580189188e-02 0.0000000000000000e+00  -5.8580119540261313e-03 -3.1960932520382623e-02 0.0000000000000000e+00  -5.6560049006207907e-03 -3.2783814305980784e-02 0.0000000000000000e+00  -5.4991414510412312e-03 -3.3810809557177406e-02 0.0000000000000000e+00  -5.3841014508918860e-03 -3.5025492025927724e-02 0.0000000000000000e+00  -5.2792624189102336e-03 -3.6414180190079387e-02 0.0000000000000000e+00  -5.1356445502194368e-03 -3.7981039148100484e-02 0.0000000000000000e+00  -4.8962693682554036e-03 -3.9723156861172990e-02 0.0000000000000000e+00  -4.5261739834444288e-03 -4.1627978577368913e-02 0.0000000000000000e+00  -3.4185629980602434e-03 -4.5646538275610493e-02 0.0000000000000000e+00  -2.7595683058663722e-03 -4.7554916527127435e-02 0.0000000000000000e+00  -2.0925936661368295e-03 -4.9288010110077711e-02 0.0000000000000000e+00  -1.4633250570603587e-03 -5.0803786004650062e-02 0.0000000000000000e+00  -9.1393313445134667e-04 -5.2097749584447330e-02 0.0000000000000000e+00  -4.7828116642617704e-04 -5.3161234747598762e-02 0.0000000000000000e+00  -1.6887766537165532e-04 -5.3979540477584791e-02 0.0000000000000000e+00  2.7945666471030295e-05 -5.4536618213007503e-02 0.0000000000000000e+00  1.4124746442991607e-04 -5.4823923554929779e-02 0.0000000000000000e+00  2.1436627542636275e-04 -5.4851978796722427e-02 0.0000000000000000e+00  2.8614047741376628e-04 -5.4658994156054040e-02 0.0000000000000000e+00  3.7773601452290148e-04 -5.4307301104383386e-02 0.0000000000000000e+00  4.8332271852809873e-04 -5.3864949235631433e-02 0.0000000000000000e+00  5.8235671830563331e-04 -5.3388285566669101e-02 0.0000000000000000e+00  6.5115492383292447e-04 -5.2903150693218937e-02 0.0000000000000000e+00  1.8157491012691337e-03 -5.2418872171388187e-02 0.0000000000000000e+00  1.4364414279815091e-03 -5.2418425835141787e-02 0.0000000000000000e+00  1.0566971825344141e-03 -5.2417974681539588e-02 0.0000000000000000e+00  2.2168130001720470e-03 -5.2900897814688028e-02 0.0000000000000000e+00  2.2901235444099319e-03 -5.3373684671448776e-02 0.0000000000000000e+00  2.4265235252564333e-03 -5.3836136859626585e-02 0.0000000000000000e+00  2.6460706108354408e-03 -5.4306741483896102e-02 0.0000000000000000e+00  2.9683103891330761e-03 -5.4828988593027657e-02 0.0000000000000000e+00  3.3893755257940889e-03 -5.5464031546539762e-02 0.0000000000000000e+00  3.8903712475892947e-03 -5.6256758435734515e-02 0.0000000000000000e+00  4.4317034837250153e-03 -5.7234240331374905e-02 0.0000000000000000e+00  4.9802225069550720e-03 -5.8394508738849597e-02 0.0000000000000000e+00  5.5184299508076349e-03 -5.9721952247795938e-02 0.0000000000000000e+00  6.0526695722209894e-03 -6.1199875723621996e-02 0.0000000000000000e+00  6.6154600316449064e-03 -6.2818802401252247e-02 0.0000000000000000e+00  7.2530946582757957e-03 -6.4588062478942609e-02 0.0000000000000000e+00  8.0109078499384680e-03 -6.6512537792119547e-02 0.0000000000000000e+00  8.9050329742736637e-03 -6.8586301549949061e-02 0.0000000000000000e+00  1.0955789359698495e-02 -7.2917089529259127e-02 0.0000000000000000e+00  1.1982510878013757e-02 -7.4955054191502904e-02 0.0000000000000000e+00  1.2941962514692843e-02 -7.6796798333974056e-02 0.0000000000000000e+00  1.3800538358461026e-02 -7.8396356574229178e-02 0.0000000000000000e+00  1.4525603857582324e-02 -7.9742812606986804e-02 0.0000000000000000e+00  1.5096734904536514e-02 -8.0834213371567890e-02 0.0000000000000000e+00  1.5511152780310792e-02 -8.1653860807544540e-02 0.0000000000000000e+00  1.5789393665993887e-02 -8.2186335761270671e-02 0.0000000000000000e+00  1.5970556650119930e-02 -8.2424891660055843e-02 0.0000000000000000e+00  1.6100951100346782e-02 -8.2383752557658077e-02 0.0000000000000000e+00  1.6221640672684175e-02 -8.2104402769422116e-02 0.0000000000000000e+00  1.6356835405885478e-02 -8.1656162385250419e-02 0.0000000000000000e+00  1.6497878083246899e-02 -8.1110205825498369e-02 0.0000000000000000e+00  1.6623609571045549e-02 -8.0525373288079502e-02 0.0000000000000000e+00  1.6709077856852644e-02 -7.9930299319161818e-02 0.0000000000000000e+00  1.8140572558671689e-02 -7.9336211455335967e-02 0.0000000000000000e+00  1.7674290627884517e-02 -7.9335410072755158e-02 0.0000000000000000e+00  1.7207553782612257e-02 -7.9334601013177200e-02 0.0000000000000000e+00  1.8633553778402402e-02 -7.9929380623554966e-02 0.0000000000000000e+00  1.8722809332892675e-02 -8.0511806278896189e-02 0.0000000000000000e+00  1.8886350535222730e-02 -8.1081764907472723e-02 0.0000000000000000e+00  1.9144743638173225e-02 -8.1657528754321682e-02 0.0000000000000000e+00  1.9517965892331332e-02 -8.2282795396907679e-02 0.0000000000000000e+00  2.0002037382946262e-02 -8.3019492473057122e-02 0.0000000000000000e+00  2.0576662259805215e-02 -8.3912484460507850e-02 0.0000000000000000e+00  2.1202268949492658e-02 -8.4985745691100970e-02 0.0000000000000000e+00  2.1849350649115619e-02 -8.6234193477496071e-02 0.0000000000000000e+00  2.2505404706006565e-02 -8.7640561115456331e-02 0.0000000000000000e+00  2.3186466742577280e-02 -8.9185024420848302e-02 0.0000000000000000e+00  2.3937000554499564e-02 -9.0859816596785839e-02 0.0000000000000000e+00  2.4821339414356127e-02 -9.2669655425071523e-02 0.0000000000000000e+00  2.5901435600545111e-02 -9.4623666847013163e-02 0.0000000000000000e+00  2.7207932307440102e-02 -9.6715883266205421e-02 0.0000000000000000e+00  3.0327642275412566e-02 -1.0106143166425348e-01 0.0000000000000000e+00  3.1950306571563378e-02 -1.0308653551736509e-01 0.0000000000000000e+00  3.3499887946978057e-02 -1.0488859282774946e-01 0.0000000000000000e+00  3.4918040545539639e-02 -1.0641031605234293e-01 0.0000000000000000e+00  3.6157707745416032e-02 -1.0763155727801749e-01 0.0000000000000000e+00  3.7193284063523263e-02 -1.0854377740991331e-01 0.0000000000000000e+00  3.8022964874656624e-02 -1.0912439032996081e-01 0.0000000000000000e+00  3.8672294681900192e-02 -1.0935667323543534e-01 0.0000000000000000e+00  3.9185930125001232e-02 -1.0923711189339040e-01 0.0000000000000000e+00  3.9613457889939745e-02 -1.0878763723064164e-01 0.0000000000000000e+00  3.9995856702655229e-02 -1.0806002614419381e-01 0.0000000000000000e+00  4.0354064827116821e-02 -1.0713420693059963e-01 0.0000000000000000e+00  4.0674573574431341e-02 -1.0608986732531411e-01 0.0000000000000000e+00  4.0931998542546623e-02 -1.0499221366827489e-01 0.0000000000000000e+00  4.1098682372029259e-02 -1.0387465609406522e-01 0.0000000000000000e+00  4.3802236080597967e-02 -1.0276141781318274e-01 0.0000000000000000e+00  4.2921863993650639e-02 -1.0275777231142108e-01 0.0000000000000000e+00  4.2040934426907324e-02 -1.0275411626842268e-01 0.0000000000000000e+00  4.4731594895994063e-02 -1.0388514777681541e-01 0.0000000000000000e+00  4.4894742069650620e-02 -1.0499037386012938e-01 0.0000000000000000e+00  4.5183363993030759e-02 -1.0607271760247977e-01 0.0000000000000000e+00  4.5617847472160272e-02 -1.0714539988187591e-01 0.0000000000000000e+00  4.6218109777836719e-02 -1.0824798170773624e-01 0.0000000000000000e+00  4.6980318663516103e-02 -1.0943886182238358e-01 0.0000000000000000e+00  4.7884942354918011e-02 -1.1075915699353131e-01 0.0000000000000000e+00  4.8895439135993660e-02 -1.1222894266409170e-01 0.0000000000000000e+00  4.9988894730991384e-02 -1.1384027742122668e-01 0.0000000000000000e+00  5.1163330245013482e-02 -1.1557630744609605e-01 0.0000000000000000e+00  5.2447369851815459e-02 -1.1742370764775514e-01 0.0000000000000000e+00  5.3896249697781791e-02 -1.1938773303817440e-01 0.0000000000000000e+00  5.5573639629532740e-02 -1.2149689092015423e-01 0.0000000000000000e+00  5.7513851194549631e-02 -1.2379491932549774e-01 0.0000000000000000e+00  5.9679243034379416e-02 -1.2631051569159835e-01 0.0000000000000000e+00  6.4019117900254621e-02 -1.3181510527099502e-01 0.0000000000000000e+00  6.5803694108801006e-02 -1.3453801204139026e-01 0.0000000000000000e+00  6.7215294437598633e-02 -1.3707465383693498e-01 0.0000000000000000e+00  6.8288363549971795e-02 -1.3933975043386324e-01 0.0000000000000000e+00  6.9099727959092624e-02 -1.4132494788701735e-01 0.0000000000000000e+00  6.9717422607294993e-02 -1.4306445050486472e-01 0.0000000000000000e+00  7.0189450896790531e-02 -1.4459744477165046e-01 0.0000000000000000e+00  7.0545177252631014e-02 -1.4596352479606595e-01 0.0000000000000000e+00  7.0800381307776564e-02 -1.4719316371829000e-01 0.0000000000000000e+00  7.0966361718901944e-02 -1.4830474028888654e-01 0.0000000000000000e+00  7.1050454032817470e-02 -1.4930747583082504e-01 0.0000000000000000e+00  7.1061606780501788e-02 -1.5019873060768371e-01 0.0000000000000000e+00  7.1016127839594892e-02 -1.5097124284384247e-01 0.0000000000000000e+00  7.0933206353386041e-02 -1.5161599082088581e-01 0.0000000000000000e+00  7.0854721947709073e-02 -1.5213716313546916e-01 0.0000000000000000e+00  6.7465525944857482e-02 -1.5614871969226068e-01 0.0000000000000000e+00  6.7863860703642143e-02 -1.5562937586112410e-01 0.0000000000000000e+00  6.8212029132499213e-02 -1.5511243060777666e-01 0.0000000000000000e+00  6.8503812143135112e-02 -1.5461445192996970e-01 0.0000000000000000e+00  6.8742268401912499e-02 -1.5415077662118087e-01 0.0000000000000000e+00  6.8936350670813287e-02 -1.5373325924740067e-01 0.0000000000000000e+00  6.9098770733666451e-02 -1.5337147373517815e-01 0.0000000000000000e+00  6.9245004705476260e-02 -1.5307296958984179e-01 0.0000000000000000e+00  6.9392935683510737e-02 -1.5284317754637752e-01 0.0000000000000000e+00  6.9562335192963370e-02 -1.5268457313369219e-01 0.0000000000000000e+00  6.9775438993051483e-02 -1.5259604259921394e-01 0.0000000000000000e+00  7.0053893066433073e-02 -1.5256645788929188e-01 0.0000000000000000e+00  7.0410690587514937e-02 -1.5257485287793948e-01 0.0000000000000000e+00  1.3275057791269709e-01 -3.3415805629557604e-01 0.0000000000000000e+00  1.3255998327475996e-01 -3.2979263718973051e-01 0.0000000000000000e+00  1.3235327051409423e-01 -3.2539648305398117e-01 0.0000000000000000e+00  1.3211828875239631e-01 -3.2094317541350548e-01 0.0000000000000000e+00  1.3183955390185326e-01 -3.1642265899997385e-01 0.0000000000000000e+00  1.3150633590397487e-01 -3.1183624675579419e-01 0.0000000000000000e+00  1.3111214595875129e-01 -3.0719109960414726e-01 0.0000000000000000e+00  1.3065331311619446e-01 -3.0249863589521064e-01 0.0000000000000000e+00  1.3013092570794874e-01 -2.9777228543692913e-01 0.0000000000000000e+00  1.2954839679709199e-01 -2.9302592695142143e-01 0.0000000000000000e+00  1.2891127927218285e-01 -2.8827285864995933e-01 0.0000000000000000e+00  1.2822602287813173e-01 -2.8352584654881097e-01 0.0000000000000000e+00  1.2749953818864018e-01 -2.7879668721741840e-01 0.0000000000000000e+00  1.2673815897550128e-01 -2.7409627181309870e-01 0.0000000000000000e+00  1.2594699030686768e-01 -2.6943507804961964e-01 0.0000000000000000e+00  1.2512949568362583e-01 -2.6482394916959756e-01 0.0000000000000000e+00  1.2428770304402673e-01 -2.6027424672970989e-01 0.0000000000000000e+00  1.2342127544540103e-01 -2.5579993747683599e-01 0.0000000000000000e+00  1.2252862415755340e-01 -2.5141704461287068e-01 0.0000000000000000e+00  1.2160669794357817e-01 -2.4714574382244645e-01 0.0000000000000000e+00  1.2065153590454240e-01 -2.4301219893192419e-01 0.0000000000000000e+00  1.1965860396675508e-01 -2.3905258260379564e-01 0.0000000000000000e+00  1.1862337577372041e-01 -2.3532837795699807e-01 0.0000000000000000e+00  1.1756889918710865e-01 -2.3196022800375948e-01 0.0000000000000000e+00  1.1653493357579983e-01 -2.2887524443446117e-01 0.0000000000000000e+00  1.1552182921937550e-01 -2.2599261910801174e-01 0.0000000000000000e+00  1.1452635745122297e-01 -2.2327933587834886e-01 0.0000000000000000e+00  1.1354764033591043e-01 -2.2071231845092507e-01 0.0000000000000000e+00  1.1258511391849160e-01 -2.1827444375146451e-01 0.0000000000000000e+00  1.1163984569489767e-01 -2.1595196844213782e-01 0.0000000000000000e+00  1.1071348680555043e-01 -2.1373281308768113e-01 0.0000000000000000e+00  1.0980867536722283e-01 -2.1160591428021541e-01 0.0000000000000000e+00  1.0892860839124542e-01 -2.0956058310243264e-01 0.0000000000000000e+00  1.0807660809057741e-01 -2.0758656344022083e-01 0.0000000000000000e+00  1.0725629162874784e-01 -2.0567324504315701e-01 0.0000000000000000e+00  1.0647067291788738e-01 -2.0381019689338339e-01 0.0000000000000000e+00  1.0572235126618165e-01 -2.0198726177596033e-01 0.0000000000000000e+00  1.0501255