<?xml version="1.0"?>
<VTKFile type="UnstructuredGrid"  version="0.1"  >
<UnstructuredGrid>
<Piece  NumberOfPoints="12853" NumberOfCells="23493">
<Points>
<DataArray  type="Float64"  NumberOfComponents="3"  format="ascii">-3.187178156719634e-14 1.7 0  0 0 0  1.3 3 0  -3.185690647650846e-14 4.300000000000001 0  -3.187178156719634e-14 4.699999999999999 0  1.3 6 0  -3.185690647650846e-14 7.300000000000001 0  -3.187178156719634e-14 7.699999999999999 0  1.3 9 0  -3.185690647650846e-14 10.3 0  -3.187178156719634e-14 10.7 0  1.3 12 0  -3.185690647650846e-14 13.3 0  -3.187178156719634e-14 13.7 0  1.3 15 0  -3.185690647650846e-14 16.3 0  0 18 0  18 18 0  17.99999999999997 16.3 0  17.99999999999997 13.7 0  17.99999999999997 13.3 0  17.99999999999997 10.7 0  17.99999999999997 10.3 0  17.99999999999997 7.7 0  17.99999999999997 7.3 0  17.99999999999997 4.7 0  17.99999999999997 4.3 0  17.99999999999997 1.7 0  18 0 0  4.3 3 0  7.3 3 0  10.3 3 0  4.3 6 0  7.3 6 0  10.3 6 0  13.3 3 0  16.3 3 0  13.3 6 0  16.3 6 0  4.3 9 0  4.3 12 0  7.3 9 0  10.3 9 0  7.3 12 0  10.3 12 0  4.3 15 0  7.3 15 0  10.3 15 0  13.3 9 0  13.3 12 0  16.3 9 0  16.3 12 0  13.3 15 0  16.3 15 0  0 1.578571428571429 0  0 1.457142857142856 0  0 1.335714285714285 0  0 1.214285714285712 0  0 1.092857142857142 0  0 0.9714285714285715 0  0 0.8499999999999979 0  0 0.7285714285714278 0  0 0.6071428571428577 0  0 0.485714285714284 0  0 0.3642857142857139 0  0 0.2428571428571438 0  0 0.1214285714285701 0  0.1274222824284281 1.706259855326144 0  0.2536174186209668 1.7249791354758 0  0.3773700804308007 1.755977563548128 0  0.497488462074617 1.798956607735327 0  0.6128157578737968 1.853502356347138 0  0.7222413029254824 1.919089504006691 0  0.8247112694127393 1.995086410628442 0  0.9192388155425116 2.080761184457488 0  1.004913589371558 2.17528873058726 0  1.080910495993309 2.277758697074517 0  1.146497643652861 2.387184242126203 0  1.201043392264673 2.502511537925383 0  1.244022436451871 2.622629919569199 0  1.275020864524199 2.746382581379033 0  1.293740144673856 2.872577717571571 0  1.293740144673856 3.127422282428428 0  1.2750208645242 3.253617418620966 0  1.244022436451872 3.3773700804308 0  1.201043392264673 3.497488462074616 0  1.146497643652862 3.612815757873796 0  1.08091049599331 3.722241302925481 0  1.00491358937156 3.824711269412738 0  0.9192388155425134 3.91923881554251 0  0.8247112694127412 4.004913589371556 0  0.7222413029254846 4.080910495993308 0  0.6128157578737984 4.146497643652861 0  0.4974884620746181 4.201043392264673 0  0.3773700804308024 4.244022436451871 0  0.2536174186209674 4.275020864524199 0  0.127422282428429 4.293740144673856 0  0 4.6 0  0 4.5 0  0 4.4 0  0.1274222824284281 4.706259855326143 0  0.2536174186209668 4.724979135475801 0  0.3773700804308007 4.755977563548129 0  0.497488462074617 4.798956607735327 0  0.6128157578737968 4.853502356347138 0  0.7222413029254824 4.919089504006691 0  0.8247112694127393 4.995086410628442 0  0.9192388155425116 5.080761184457488 0  1.004913589371558 5.17528873058726 0  1.080910495993309 5.277758697074518 0  1.146497643652861 5.387184242126203 0  1.201043392264673 5.502511537925383 0  1.244022436451871 5.622629919569198 0  1.275020864524199 5.746382581379033 0  1.293740144673856 5.872577717571572 0  1.293740144673856 6.127422282428428 0  1.2750208645242 6.253617418620967 0  1.244022436451872 6.377370080430801 0  1.201043392264673 6.497488462074616 0  1.146497643652862 6.612815757873795 0  1.08091049599331 6.722241302925481 0  1.00491358937156 6.824711269412737 0  0.9192388155425134 6.91923881554251 0  0.8247112694127412 7.004913589371556 0  0.7222413029254846 7.080910495993308 0  0.6128157578737984 7.146497643652861 0  0.4974884620746181 7.201043392264673 0  0.3773700804308024 7.244022436451871 0  0.2536174186209674 7.275020864524199 0  0.127422282428429 7.293740144673856 0  0 7.6 0  0 7.5 0  0 7.4 0  0.1274222824284281 7.706259855326143 0  0.2536174186209668 7.724979135475801 0  0.3773700804308007 7.755977563548129 0  0.497488462074617 7.798956607735327 0  0.6128157578737968 7.853502356347138 0  0.7222413029254824 7.919089504006691 0  0.8247112694127393 7.995086410628442 0  0.9192388155425116 8.080761184457488 0  1.004913589371558 8.17528873058726 0  1.080910495993309 8.277758697074518 0  1.146497643652861 8.387184242126203 0  1.201043392264673 8.502511537925383 0  1.244022436451871 8.622629919569199 0  1.275020864524199 8.746382581379033 0  1.293740144673856 8.872577717571572 0  1.293740144673856 9.127422282428428 0  1.2750208645242 9.253617418620966 0  1.244022436451872 9.377370080430801 0  1.201043392264673 9.497488462074616 0  1.146497643652862 9.612815757873795 0  1.08091049599331 9.722241302925481 0  1.00491358937156 9.824711269412738 0  0.9192388155425134 9.91923881554251 0  0.8247112694127412 10.00491358937156 0  0.7222413029254846 10.08091049599331 0  0.6128157578737984 10.14649764365286 0  0.4974884620746181 10.20104339226467 0  0.3773700804308024 10.24402243645187 0  0.2536174186209674 10.2750208645242 0  0.127422282428429 10.29374014467386 0  0 10.6 0  0 10.5 0  0 10.4 0  0.1274222824284281 10.70625985532614 0  0.2536174186209668 10.7249791354758 0  0.3773700804308007 10.75597756354813 0  0.497488462074617 10.79895660773533 0  0.6128157578737968 10.85350235634714 0  0.7222413029254824 10.91908950400669 0  0.8247112694127393 10.99508641062844 0  0.9192388155425116 11.08076118445749 0  1.004913589371558 11.17528873058726 0  1.080910495993309 11.27775869707452 0  1.146497643652861 11.3871842421262 0  1.201043392264673 11.50251153792538 0  1.244022436451871 11.6226299195692 0  1.275020864524199 11.74638258137903 0  1.293740144673856 11.87257771757157 0  1.293740144673856 12.12742228242843 0  1.2750208645242 12.25361741862097 0  1.244022436451872 12.3773700804308 0  1.201043392264673 12.49748846207462 0  1.146497643652862 12.6128157578738 0  1.08091049599331 12.72224130292548 0  1.00491358937156 12.82471126941274 0  0.9192388155425134 12.91923881554251 0  0.8247112694127412 13.00491358937156 0  0.7222413029254846 13.08091049599331 0  0.6128157578737984 13.14649764365286 0  0.4974884620746181 13.20104339226467 0  0.3773700804308024 13.24402243645187 0  0.2536174186209674 13.2750208645242 0  0.127422282428429 13.29374014467386 0  0 13.6 0  0 13.5 0  0 13.4 0  0.1274222824284281 13.70625985532614 0  0.2536174186209668 13.7249791354758 0  0.3773700804308007 13.75597756354813 0  0.497488462074617 13.79895660773533 0  0.6128157578737968 13.85350235634714 0  0.7222413029254824 13.91908950400669 0  0.8247112694127393 13.99508641062844 0  0.9192388155425116 14.08076118445749 0  1.004913589371558 14.17528873058726 0  1.080910495993309 14.27775869707452 0  1.146497643652861 14.3871842421262 0  1.201043392264673 14.50251153792538 0  1.244022436451871 14.6226299195692 0  1.275020864524199 14.74638258137903 0  1.293740144673856 14.87257771757157 0  1.293740144673856 15.12742228242843 0  1.2750208645242 15.25361741862097 0  1.244022436451872 15.3773700804308 0  1.201043392264673 15.49748846207462 0  1.146497643652862 15.6128157578738 0  1.08091049599331 15.72224130292548 0  1.00491358937156 15.82471126941274 0  0.9192388155425134 15.91923881554251 0  0.8247112694127412 16.00491358937156 0  0.7222413029254846 16.08091049599331 0  0.6128157578737984 16.14649764365286 0  0.4974884620746181 16.20104339226467 0  0.3773700804308024 16.24402243645187 0  0.2536174186209674 16.2750208645242 0  0.127422282428429 16.29374014467385 0  0 17.87857142857143 0  0 17.75714285714286 0  0 17.63571428571429 0  0 17.51428571428571 0  0 17.39285714285714 0  0 17.27142857142857 0  0 17.15 0  0 17.02857142857143 0  0 16.90714285714286 0  0 16.78571428571428 0  0 16.66428571428571 0  0 16.54285714285714 0  0 16.42142857142857 0  17.8705035971223 18 0  17.7410071942446 18 0  17.61151079136691 18 0  17.48201438848921 18 0  17.35251798561151 18 0  17.22302158273381 18 0  17.09352517985612 18 0  16.96402877697842 18 0  16.83453237410072 18 0  16.70503597122302 18 0  16.57553956834532 18 0  16.44604316546762 18 0  16.31654676258993 18 0  16.18705035971223 18 0  16.05755395683453 18 0  15.92805755395683 18 0  15.79856115107913 18 0  15.66906474820144 18 0  15.53956834532374 18 0  15.41007194244604 18 0  15.28057553956834 18 0  15.15107913669064 18 0  15.02158273381295 18 0  14.89208633093525 18 0  14.76258992805755 18 0  14.63309352517985 18 0  14.50359712230215 18 0  14.37410071942446 18 0  14.24460431654676 18 0  14.11510791366906 18 0  13.98561151079136 18 0  13.85611510791366 18 0  13.72661870503597 18 0  13.59712230215827 18 0  13.46762589928057 18 0  13.33812949640287 18 0  13.20863309352517 18 0  13.07913669064748 18 0  12.94964028776977 18 0  12.82014388489208 18 0  12.69064748201438 18 0  12.56115107913668 18 0  12.43165467625898 18 0  12.30215827338128 18 0  12.17266187050359 18 0  12.04316546762589 18 0  11.91366906474819 18 0  11.78417266187049 18 0  11.65467625899279 18 0  11.52517985611509 18 0  11.3956834532374 18 0  11.2661870503597 18 0  11.136690647482 18 0  11.0071942446043 18 0  10.8776978417266 18 0  10.7482014388489 18 0  10.6187050359712 18 0  10.48920863309351 18 0  10.35971223021581 18 0  10.23021582733811 18 0  10.10071942446041 18 0  9.971223021582714 18 0  9.841726618705016 18 0  9.712230215827317 18 0  9.582733812949618 18 0  9.453237410071921 18 0  9.323741007194224 18 0  9.194244604316525 18 0  9.064748201438828 18 0  8.935251798561131 18 0  8.805755395683434 18 0  8.676258992805735 18 0  8.546762589928038 18 0  8.417266187050341 18 0  8.287769784172642 18 0  8.158273381294947 18 0  8.028776978417248 18 0  7.899280575539549 18 0  7.769784172661854 18 0  7.640287769784155 18 0  7.510791366906458 18 0  7.381294964028761 18 0  7.251798561151062 18 0  7.122302158273365 18 0  6.992805755395668 18 0  6.86330935251797 18 0  6.733812949640273 18 0  6.604316546762576 18 0  6.474820143884878 18 0  6.34532374100718 18 0  6.215827338129483 18 0  6.086330935251786 18 0  5.956834532374087 18 0  5.827338129496392 18 0  5.697
[...]
<PointData  Vectors="f_21"> 
<DataArray  type="Float64"  Name="f_21"  NumberOfComponents="3" format="ascii">-2.1383680858655949e-03 -1.5986006201885181e-03 0.0000000000000000e+00  0.0000000000000000e+00 0.0000000000000000e+00 0.0000000000000000e+00  -3.8156190822970838e-03 -1.4054499442705860e-02 0.0000000000000000e+00  -5.5405507879885451e-03 -2.4627581073050485e-02 0.0000000000000000e+00  -5.5455023045990481e-03 -2.4627310544918981e-02 0.0000000000000000e+00  -3.5893709040723861e-03 -3.4968858964171678e-02 0.0000000000000000e+00  -1.7260988065088742e-04 -4.2295085311160295e-02 0.0000000000000000e+00  9.4668573459579625e-04 -4.2296274636202176e-02 0.0000000000000000e+00  6.7176560675650185e-03 -5.6660497249049764e-02 0.0000000000000000e+00  1.1823633955575528e-02 -6.3720296077887636e-02 0.0000000000000000e+00  1.3235600015056298e-02 -6.3722395895690731e-02 0.0000000000000000e+00  2.0919297582859996e-02 -7.9116054373311498e-02 0.0000000000000000e+00  3.0243560671738917e-02 -8.2655906221505926e-02 0.0000000000000000e+00  3.2894556721462694e-02 -8.2664405044511002e-02 0.0000000000000000e+00  4.6000255312907683e-02 -1.0304934957623592e-01 0.0000000000000000e+00  5.2821244397892611e-02 -1.2175595234155208e-01 0.0000000000000000e+00  4.9705983019339733e-02 -1.2498759339714813e-01 0.0000000000000000e+00  1.0167896488222236e-01 -2.6650873717585738e-01 0.0000000000000000e+00  5.5464732273879748e-02 -2.6251566020287653e-01 0.0000000000000000e+00  4.5702578676727446e-02 -1.7328535073875287e-01 0.0000000000000000e+00  4.5307001976347960e-02 -1.7328537797190682e-01 0.0000000000000000e+00  3.6437548542713659e-02 -1.4119743068263460e-01 0.0000000000000000e+00  3.3135351864158787e-02 -1.4118465079992493e-01 0.0000000000000000e+00  2.3362257096506866e-02 -9.1413314309732360e-02 0.0000000000000000e+00  2.2194077221256589e-02 -9.1412310134005206e-02 0.0000000000000000e+00  1.5102589217159984e-02 -5.2260961386584023e-02 0.0000000000000000e+00  1.3460767544017564e-02 -5.2258226727635082e-02 0.0000000000000000e+00  3.6202906165293024e-03 -2.8415097827666474e-03 0.0000000000000000e+00  0.0000000000000000e+00 0.0000000000000000e+00 0.0000000000000000e+00  -2.2029832454206703e-03 -1.4201665608840024e-02 0.0000000000000000e+00  -9.9396835574007891e-04 -1.4350586441489848e-02 0.0000000000000000e+00  -6.1949333032133846e-04 -1.5979329764482256e-02 0.0000000000000000e+00  5.6586794353535993e-04 -3.6245527741882770e-02 0.0000000000000000e+00  2.7074692157455903e-03 -3.7371903274002805e-02 0.0000000000000000e+00  5.7296406193655192e-03 -4.2230883462750210e-02 0.0000000000000000e+00  6.9187966583401060e-04 -1.9293711956912214e-02 0.0000000000000000e+00  2.8210725245857889e-03 -2.4811148501871275e-02 0.0000000000000000e+00  7.5101546777047116e-03 -5.2186624198252853e-02 0.0000000000000000e+00  1.4481344388016917e-02 -6.6179245757442634e-02 0.0000000000000000e+00  9.4061825956365201e-03 -5.8776050666988787e-02 0.0000000000000000e+00  2.5588561831165566e-02 -8.1200817515768881e-02 0.0000000000000000e+00  1.2989683656168330e-02 -6.0315412650156656e-02 0.0000000000000000e+00  1.4404733237181451e-02 -6.8408812456659654e-02 0.0000000000000000e+00  2.6495440038444406e-02 -8.2752155758385709e-02 0.0000000000000000e+00  2.9668737061648066e-02 -9.3918000902880064e-02 0.0000000000000000e+00  4.7422713834662282e-02 -1.0356376912265493e-01 0.0000000000000000e+00  4.9740273610332709e-02 -1.0384829425217038e-01 0.0000000000000000e+00  4.7313545101202274e-02 -1.1797527364349905e-01 0.0000000000000000e+00  1.9472890615958034e-02 -8.4282447006797559e-02 0.0000000000000000e+00  2.7924978873308581e-02 -1.1629642472482100e-01 0.0000000000000000e+00  2.0651951630688500e-02 -1.0753995482073518e-01 0.0000000000000000e+00  3.9558631073025464e-02 -1.5000586068464059e-01 0.0000000000000000e+00  4.9082957195909882e-02 -1.4516411979712152e-01 0.0000000000000000e+00  3.4135194760562239e-02 -1.9556260744406589e-01 0.0000000000000000e+00  -2.2042325140583358e-03 -1.6022963469436214e-03 0.0000000000000000e+00  -2.2523443579570480e-03 -1.6159026169013874e-03 0.0000000000000000e+00  -2.2631798642433476e-03 -1.6269520976079969e-03 0.0000000000000000e+00  -2.2329202344333341e-03 -1.6254130234850364e-03 0.0000000000000000e+00  -2.1637528356402425e-03 -1.6044634881339003e-03 0.0000000000000000e+00  -2.0595659748968102e-03 -1.5611010895082576e-03 0.0000000000000000e+00  -1.9237755531551985e-03 -1.4943590923929479e-03 0.0000000000000000e+00  -1.7589411968772484e-03 -1.4035604013459930e-03 0.0000000000000000e+00  -1.5663068996899108e-03 -1.2878734091413316e-03 0.0000000000000000e+00  -1.3457511812471369e-03 -1.1452730858847776e-03 0.0000000000000000e+00  -1.0954823327305628e-03 -9.7160467574611601e-04 0.0000000000000000e+00  -8.1109293077702177e-04 -7.5776987505184559e-04 0.0000000000000000e+00  -4.7462052203688494e-04 -4.8205546671640278e-04 0.0000000000000000e+00  -2.1301260565277204e-03 -1.6654228857469638e-03 0.0000000000000000e+00  -2.1000838656559657e-03 -1.7575165195479730e-03 0.0000000000000000e+00  -2.0567427970755669e-03 -1.9111569035879493e-03 0.0000000000000000e+00  -2.0167894013574609e-03 -2.1479467710187332e-03 0.0000000000000000e+00  -1.9890167339549781e-03 -2.4781341165217999e-03 0.0000000000000000e+00  -1.9842571800874984e-03 -2.9090546742479143e-03 0.0000000000000000e+00  -2.0105230918146906e-03 -3.4445858291929175e-03 0.0000000000000000e+00  -2.0725669384962604e-03 -4.0891728771294510e-03 0.0000000000000000e+00  -2.1748729155997987e-03 -4.8480663057218522e-03 0.0000000000000000e+00  -2.3176892728563139e-03 -5.7296713109181588e-03 0.0000000000000000e+00  -2.4996055950102869e-03 -6.7463915884478183e-03 0.0000000000000000e+00  -2.7164882817126415e-03 -7.9120238697743296e-03 0.0000000000000000e+00  -2.9631960386978171e-03 -9.2415725640123264e-03 0.0000000000000000e+00  -3.2353688657947785e-03 -1.0734434938139107e-02 0.0000000000000000e+00  -3.5254668443678392e-03 -1.2356875215493742e-02 0.0000000000000000e+00  -4.0731679509170109e-03 -1.5728932839899325e-02 0.0000000000000000e+00  -4.2731674155760332e-03 -1.7304233495319232e-02 0.0000000000000000e+00  -4.4058803306524464e-03 -1.8738057245093927e-02 0.0000000000000000e+00  -4.4859828919661471e-03 -2.0015602619349999e-02 0.0000000000000000e+00  -4.5487949830323293e-03 -2.1142032243496006e-02 0.0000000000000000e+00  -4.6283135499159619e-03 -2.2120554222141282e-02 0.0000000000000000e+00  -4.7456543926633456e-03 -2.2944401130465964e-02 0.0000000000000000e+00  -4.9006123970723424e-03 -2.3601464502378492e-02 0.0000000000000000e+00  -5.0781442051251189e-03 -2.4083336831808390e-02 0.0000000000000000e+00  -5.2499492543437686e-03 -2.4394820191363121e-02 0.0000000000000000e+00  -5.3885741361587077e-03 -2.4560958480300387e-02 0.0000000000000000e+00  -5.4783020131855664e-03 -2.4625200385141450e-02 0.0000000000000000e+00  -5.5231440981828367e-03 -2.4635587051381410e-02 0.0000000000000000e+00  -5.5381763715231435e-03 -2.4631192108423024e-02 0.0000000000000000e+00  -5.5406945814372999e-03 -2.4627845691716551e-02 0.0000000000000000e+00  -5.5434172187238881e-03 -2.4627275325353741e-02 0.0000000000000000e+00  -5.5419857025469600e-03 -2.4627447585566838e-02 0.0000000000000000e+00  -5.5409369964775045e-03 -2.4627617515285877e-02 0.0000000000000000e+00  -5.5457934102329043e-03 -2.4623895623054483e-02 0.0000000000000000e+00  -5.5437547843394967e-03 -2.4617423894792021e-02 0.0000000000000000e+00  -5.5294160830448224e-03 -2.4609661639136783e-02 0.0000000000000000e+00  -5.4861309649636243e-03 -2.4617724901640645e-02 0.0000000000000000e+00  -5.3966904026326286e-03 -2.4678181594024285e-02 0.0000000000000000e+00  -5.2610864049922376e-03 -2.4842319568326877e-02 0.0000000000000000e+00  -5.0911062734884894e-03 -2.5150076791560425e-02 0.0000000000000000e+00  -4.9160845711492358e-03 -2.5628379092046370e-02 0.0000000000000000e+00  -4.7625148189049012e-03 -2.6280635984752113e-02 0.0000000000000000e+00  -4.6463235975161129e-03 -2.7097469790502333e-02 0.0000000000000000e+00  -4.5652682325211099e-03 -2.8066085578665849e-02 0.0000000000000000e+00  -4.4947488229599188e-03 -2.9175894900550167e-02 0.0000000000000000e+00  -4.3966319234483662e-03 -3.0430602880878833e-02 0.0000000000000000e+00  -4.2266845188206389e-03 -3.1827866040871115e-02 0.0000000000000000e+00  -3.9580599539710765e-03 -3.3357382905505863e-02 0.0000000000000000e+00  -3.1427361830595347e-03 -3.6585743935534640e-02 0.0000000000000000e+00  -2.6541880117585200e-03 -3.8119031474394924e-02 0.0000000000000000e+00  -2.1579739163972459e-03 -3.9512250206137613e-02 0.0000000000000000e+00  -1.6891080085522329e-03 -4.0732680593002300e-02 0.0000000000000000e+00  -1.2807568043192892e-03 -4.1777448250661806e-02 0.0000000000000000e+00  -9.5996234896789101e-04 -4.2640339587069337e-02 0.0000000000000000e+00  -7.3704091501057339e-04 -4.3310051596894057e-02 0.0000000000000000e+00  -6.0150355417468908e-04 -4.3773899146326838e-02 0.0000000000000000e+00  -5.3042986165208043e-04 -4.4024932723362949e-02 0.0000000000000000e+00  -4.8936172941179898e-04 -4.4071177006717109e-02 0.0000000000000000e+00  -4.4721681052867657e-04 -4.3942676191328196e-02 0.0000000000000000e+00  -3.8688830786433027e-04 -4.3688778165205430e-02 0.0000000000000000e+00  -3.1280325360504143e-04 -4.3363505367678364e-02 0.0000000000000000e+00  -2.4118143667196368e-04 -4.3011616758581325e-02 0.0000000000000000e+00  -1.9084044734992995e-04 -4.2653520493365703e-02 0.0000000000000000e+00  6.6770693050509822e-04 -4.2295855703464010e-02 0.0000000000000000e+00  3.8805825642660975e-04 -4.2295684778338498e-02 0.0000000000000000e+00  1.0806334436626762e-04 -4.2295510364963117e-02 0.0000000000000000e+00  9.6350719242834686e-04 -4.2650959152463329e-02 0.0000000000000000e+00  1.0179329785921958e-03 -4.2999129142418803e-02 0.0000000000000000e+00  1.1198960356116321e-03 -4.3339597959751265e-02 0.0000000000000000e+00  1.2854988426727833e-03 -4.3687429248163955e-02 0.0000000000000000e+00  1.5304699831672727e-03 -4.4077664571182618e-02 0.0000000000000000e+00  1.8518341303189040e-03 -4.4559487540340857e-02 0.0000000000000000e+00  2.2345780533370909e-03 -4.5169106828616835e-02 0.0000000000000000e+00  2.6470311742293386e-03 -4.5928551025511646e-02 0.0000000000000000e+00  3.0625053789801794e-03 -4.6836644896306852e-02 0.0000000000000000e+00  3.4666250083620728e-03 -4.7881278353778318e-02 0.0000000000000000e+00  3.8638562471440346e-03 -4.9049397143685378e-02 0.0000000000000000e+00  4.2794050154944122e-03 -5.0333522278354914e-02 0.0000000000000000e+00  4.7493152475296006e-03 -5.1741117570352456e-02 0.0000000000000000e+00  5.3091412478329034e-03 -5.3275368961687858e-02 0.0000000000000000e+00  5.9720552193877063e-03 -5.4930712371009272e-02 0.0000000000000000e+00  7.5011179350859191e-03 -5.8387819379090058e-02 0.0000000000000000e+00  8.2716039076921651e-03 -6.0014176680561325e-02 0.0000000000000000e+00  8.9949356113521260e-03 -6.1484378864452155e-02 0.0000000000000000e+00  9.6444869979491026e-03 -6.2762888816431162e-02 0.0000000000000000e+00  1.0193463104920114e-02 -6.3841773140472582e-02 0.0000000000000000e+00  1.0624469342026700e-02 -6.4719907505786600e-02 0.0000000000000000e+00  1.0934218837035679e-02 -6.5384322225689684e-02 0.0000000000000000e+00  1.1138179429036566e-02 -6.5822740090157025e-02 0.0000000000000000e+00  1.1266864269585206e-02 -6.6029545307888113e-02 0.0000000000000000e+00  1.1356847443513673e-02 -6.6015622218720427e-02 0.0000000000000000e+00  1.1440795058581910e-02 -6.5813505490917037e-02 0.0000000000000000e+00  1.1538141115500864e-02 -6.5477976538399166e-02 0.0000000000000000e+00  1.1642189775369101e-02 -6.5065442774089238e-02 0.0000000000000000e+00  1.1736247477549148e-02 -6.4622576290953748e-02 0.0000000000000000e+00  1.1800524523741002e-02 -6.4172008599774871e-02 0.0000000000000000e+00  1.2883481188780197e-02 -6.3721746361677697e-02 0.0000000000000000e+00  1.2530670900500064e-02 -6.3721352905515657e-02 0.0000000000000000e+00  1.2177499662838027e-02 -6.3720953752288978e-02 0.0000000000000000e+00  1.3256703187732735e-02 -6.4170267297903608e-02 0.0000000000000000e+00  1.3324624428945258e-02 -6.4610668216571951e-02 0.0000000000000000e+00  1.3449440492522887e-02 -6.5041558851721484e-02 0.0000000000000000e+00  1.3647616707807153e-02 -6.5477728017601877e-02 0.0000000000000000e+00  1.3935195933901108e-02 -6.5954239291046740e-02 0.0000000000000000e+00  1.4309142328205151e-02 -6.6520755795750161e-02 0.0000000000000000e+00  1.4753371280393314e-02 -6.7213411754687369e-02 0.0000000000000000e+00  1.5236260501435369e-02 -6.8051797482090837e-02 0.0000000000000000e+00  1.5733973142936633e-02 -6.9032370855565142e-02 0.0000000000000000e+00  1.6235929828109227e-02 -7.0141883615915793e-02 0.0000000000000000e+00  1.6753934714855385e-02 -7.1364972629928358e-02 0.0000000000000000e+00  1.7322030436327299e-02 -7.2695836022401372e-02 0.0000000000000000e+00  1.7989559391463100e-02 -7.4138415765882898e-02 0.0000000000000000e+00  1.8803782560958229e-02 -7.5699414448574198e-02 0.0000000000000000e+00  1.9787792867150194e-02 -7.7373257321809566e-02 0.0000000000000000e+00  2.2135643657325753e-02 -8.0849897185906655e-02 0.0000000000000000e+00  2.3357833998078871e-02 -8.2469786480619672e-02 0.0000000000000000e+00  2.4526592058142234e-02 -8.3912682217014575e-02 0.0000000000000000e+00  2.5597321008302958e-02 -8.5134726099097002e-02 0.0000000000000000e+00  2.6532807751921961e-02 -8.6121279442938181e-02 0.0000000000000000e+00  2.7312013210350886e-02 -8.6866396870440094e-02 0.0000000000000000e+00  2.7932563780781648e-02 -8.7352724037908128e-02 0.0000000000000000e+00  2.8413861134245919e-02 -8.7566998856793615e-02 0.0000000000000000e+00  2.8790757059598198e-02 -8.7506042485929136e-02 0.0000000000000000e+00  2.9102413208326728e-02 -8.7186571796710438e-02 0.0000000000000000e+00  2.9381508389871303e-02 -8.6648921373855714e-02 0.0000000000000000e+00  2.9645052304955406e-02 -8.5955906587522807e-02 0.0000000000000000e+00  2.9882715346452728e-02 -8.5170369350492436e-02 0.0000000000000000e+00  3.0074640443380370e-02 -8.4343768307943809e-02 0.0000000000000000e+00  3.0199016095857952e-02 -8.3502308656120114e-02 0.0000000000000000e+00  3.2232758444297092e-02 -8.2662175880699032e-02 0.0000000000000000e+00  3.1570229949693204e-02 -8.2660166637251814e-02 0.0000000000000000e+00  3.0907261442557354e-02 -8.2658149998814018e-02 0.0000000000000000e+00  3.2933019437360725e-02 -8.3506985234462136e-02 0.0000000000000000e+00  3.3056845365773690e-02 -8.4338312747880756e-02 0.0000000000000000e+00  3.3275834102413179e-02 -8.5152248103974981e-02 0.0000000000000000e+00  3.3606339610424869e-02 -8.5959766946137856e-02 0.0000000000000000e+00  3.4064418159284370e-02 -8.6792806721680896e-02 0.0000000000000000e+00  3.4647248641644313e-02 -8.7698374350753380e-02 0.0000000000000000e+00  3.5339444863233288e-02 -8.8709791405348903e-02 0.0000000000000000e+00  3.6111838473897213e-02 -8.9843725433992133e-02 0.0000000000000000e+00  3.6945783119068223e-02 -9.1094488262358886e-02 0.0000000000000000e+00  3.7838933204635800e-02 -9.2449140100584873e-02 0.0000000000000000e+00  3.8812979304064209e-02 -9.3897196903272168e-02 0.0000000000000000e+00  3.9910601176198941e-02 -9.5442592932434719e-02 0.0000000000000000e+00  4.1181346068220374e-02 -9.7107070809924187e-02 0.0000000000000000e+00  4.2652577007820214e-02 -9.8923379463617858e-02 0.0000000000000000e+00  4.4296840291491106e-02 -1.0091231604445626e-01 0.0000000000000000e+00  4.7602741518192167e-02 -1.0525844615261602e-01 0.0000000000000000e+00  4.8968613249586908e-02 -1.0740664321639275e-01 0.0000000000000000e+00  5.0053073328884708e-02 -1.0940839339847784e-01 0.0000000000000000e+00  5.0880362520573319e-02 -1.1119778393025991e-01 0.0000000000000000e+00  5.1507556553000246e-02 -1.1276844766961702e-01 0.0000000000000000e+00  5.1985739426283040e-02 -1.1414706528515009e-01 0.0000000000000000e+00  5.2351142948099297e-02 -1.1536421098930438e-01 0.0000000000000000e+00  5.2626027126463915e-02 -1.1645078658194671e-01 0.0000000000000000e+00  5.2822371563523304e-02 -1.1743055196031818e-01 0.0000000000000000e+00  5.2948849303567365e-02 -1.1831778648429316e-01 0.0000000000000000e+00  5.3011174411231737e-02 -1.1911956469774376e-01 0.0000000000000000e+00  5.3016397071448500e-02 -1.1983360433884008e-01 0.0000000000000000e+00  5.2977451706834509e-02 -1.2045397890777884e-01 0.0000000000000000e+00  5.2909590450909122e-02 -1.2097338635014289e-01 0.0000000000000000e+00  5.2846034814499468e-02 -1.2139500068120777e-01 0.0000000000000000e+00  5.0052111862036681e-02 -1.2458445529819723e-01 0.0000000000000000e+00  5.0375774893765622e-02 -1.2417277841138409e-01 0.0000000000000000e+00  5.0659923389165466e-02 -1.2376297415710716e-01 0.0000000000000000e+00  5.0899507415037210e-02 -1.2336816943083358e-01 0.0000000000000000e+00  5.1096887829428700e-02 -1.2300052128014283e-01 0.0000000000000000e+00  5.1259118971630026e-02 -1.2266943238321887e-01 0.0000000000000000e+00  5.1396246286493849e-02 -1.2238249911169728e-01 0.0000000000000000e+00  5.1520513349966546e-02 -1.2214571451232049e-01 0.0000000000000000e+00  5.1646076249947805e-02 -1.2196339558241583e-01 0.0000000000000000e+00  5.1788593753201648e-02 -1.2183751788011103e-01 0.0000000000000000e+00  5.1965684298344070e-02 -1.2176722155220816e-01 0.0000000000000000e+00  5.2194516407611254e-02 -1.2174371339781859e-01 0.0000000000000000e+00  5.2485424796653912e-02 -1.2175039550408584e-01 0.0000000000000000e+00  1.0152924184400972e-01 -2.6313980272674731e-01 0.0000000000000000e+00  1.0136790110407118e-01 -2.5978576128069453e-01 0.0000000000000000e+00  1.0119391622791714e-01 -2.5640409532647573e-01 0.0000000000000000e+00  1.0099792067341963e-01 -2.5297535262599746e-01 0.0000000000000000e+00  1.0076800905513117e-01 -2.4949221357837095e-01 0.0000000000000000e+00  1.0049605502287025e-01 -2.4595593751682954e-01 0.0000000000000000e+00  1.0017724587141154e-01 -2.4237221441965279e-01 0.0000000000000000e+00  9.9808997920974807e-02 -2.3874995025209683e-01 0.0000000000000000e+00  9.9392420912491966e-02 -2.3509953369871645e-01 0.0000000000000000e+00  9.8930412549276953e-02 -2.3143163364704095e-01 0.0000000000000000e+00  9.8427497506919301e-02 -2.2775641645836950e-01 0.0000000000000000e+00  9.7888845738281383e-02 -2.2408358292793154e-01 0.0000000000000000e+00  9.7319918015868159e-02 -2.2042205320703520e-01 0.0000000000000000e+00  9.6725646201478360e-02 -2.1678003483336095e-01 0.0000000000000000e+00  9.6109929807524863e-02 -2.1316543129399887e-01 0.0000000000000000e+00  9.5475281732618586e-02 -2.0958646433480335e-01 0.0000000000000000e+00  9.4823084311693923e-02 -2.0605183373215857e-01 0.0000000000000000e+00  9.4152710496623451e-02 -2.0257235588283024e-01 0.0000000000000000e+00  9.3462587027891744e-02 -1.9916055577951591e-01 0.0000000000000000e+00  9.2749924299428424e-02 -1.9583234895641791e-01 0.0000000000000000e+00  9.2011206862220765e-02 -1.9260848866568350e-01 0.0000000000000000e+00  9.1242470169333081e-02 -1.8951776469018641e-01 0.0000000000000000e+00  9.0439768484327943e-02 -1.8660917082762127e-01 0.0000000000000000e+00  8.9621196502615838e-02 -1.8397875457903703e-01 0.0000000000000000e+00  8.8818194388098029e-02 -1.8156892904800132e-01 0.0000000000000000e+00  8.8030877849864381e-02 -1.7931585739844869e-01 0.0000000000000000e+00  8.7256541893741754e-02 -1.7719369006199184e-01 0.0000000000000000e+00  8.6494412137592513e-02 -1.7518449372430586e-01 0.0000000000000000e+00  8.5744030957153675e-02 -1.7327506187365746e-01 0.0000000000000000e+00  8.5006261630441601e-02 -1.7145484108346987e-01 0.0000000000000000e+00  8.4282487070314896e-02 -1.6971457088250577e-01 0.0000000000000000e+00  8.3574890450503370e-02 -1.6804575000607180e-01 0.0000000000000000e+00  8.2886129490655783e-02 -1.6644013018844656e-01 0.0000000000000000e+00  8.2218937711168033e-02 -1.6488974648493393e-01 0.0000000000000000e+00  8.1576303373531292e-02 -1.6338631473525358e-01 0.0000000000000000e+00  8.0960725487664517e-02 -1.6192164891515509e-01 0.0000000000000000e+00  8.0374334294250824e-02 -1.6048774472876037e-01 0.0000000000000000e+00  