<?xml version="1.0"?>
<VTKFile type="UnstructuredGrid"  version="0.1"  >
<UnstructuredGrid>
<Piece  NumberOfPoints="12853" NumberOfCells="23493">
<Points>
<DataArray  type="Float64"  NumberOfComponents="3"  format="ascii">-3.187178156719634e-14 1.7 0  0 0 0  1.3 3 0  -3.185690647650846e-14 4.300000000000001 0  -3.187178156719634e-14 4.699999999999999 0  1.3 6 0  -3.185690647650846e-14 7.300000000000001 0  -3.187178156719634e-14 7.699999999999999 0  1.3 9 0  -3.185690647650846e-14 10.3 0  -3.187178156719634e-14 10.7 0  1.3 12 0  -3.185690647650846e-14 13.3 0  -3.187178156719634e-14 13.7 0  1.3 15 0  -3.185690647650846e-14 16.3 0  0 18 0  18 18 0  17.99999999999997 16.3 0  17.99999999999997 13.7 0  17.99999999999997 13.3 0  17.99999999999997 10.7 0  17.99999999999997 10.3 0  17.99999999999997 7.7 0  17.99999999999997 7.3 0  17.99999999999997 4.7 0  17.99999999999997 4.3 0  17.99999999999997 1.7 0  18 0 0  4.3 3 0  7.3 3 0  10.3 3 0  4.3 6 0  7.3 6 0  10.3 6 0  13.3 3 0  16.3 3 0  13.3 6 0  16.3 6 0  4.3 9 0  4.3 12 0  7.3 9 0  10.3 9 0  7.3 12 0  10.3 12 0  4.3 15 0  7.3 15 0  10.3 15 0  13.3 9 0  13.3 12 0  16.3 9 0  16.3 12 0  13.3 15 0  16.3 15 0  0 1.578571428571429 0  0 1.457142857142856 0  0 1.335714285714285 0  0 1.214285714285712 0  0 1.092857142857142 0  0 0.9714285714285715 0  0 0.8499999999999979 0  0 0.7285714285714278 0  0 0.6071428571428577 0  0 0.485714285714284 0  0 0.3642857142857139 0  0 0.2428571428571438 0  0 0.1214285714285701 0  0.1274222824284281 1.706259855326144 0  0.2536174186209668 1.7249791354758 0  0.3773700804308007 1.755977563548128 0  0.497488462074617 1.798956607735327 0  0.6128157578737968 1.853502356347138 0  0.7222413029254824 1.919089504006691 0  0.8247112694127393 1.995086410628442 0  0.9192388155425116 2.080761184457488 0  1.004913589371558 2.17528873058726 0  1.080910495993309 2.277758697074517 0  1.146497643652861 2.387184242126203 0  1.201043392264673 2.502511537925383 0  1.244022436451871 2.622629919569199 0  1.275020864524199 2.746382581379033 0  1.293740144673856 2.872577717571571 0  1.293740144673856 3.127422282428428 0  1.2750208645242 3.253617418620966 0  1.244022436451872 3.3773700804308 0  1.201043392264673 3.497488462074616 0  1.146497643652862 3.612815757873796 0  1.08091049599331 3.722241302925481 0  1.00491358937156 3.824711269412738 0  0.9192388155425134 3.91923881554251 0  0.8247112694127412 4.004913589371556 0  0.7222413029254846 4.080910495993308 0  0.6128157578737984 4.146497643652861 0  0.4974884620746181 4.201043392264673 0  0.3773700804308024 4.244022436451871 0  0.2536174186209674 4.275020864524199 0  0.127422282428429 4.293740144673856 0  0 4.6 0  0 4.5 0  0 4.4 0  0.1274222824284281 4.706259855326143 0  0.2536174186209668 4.724979135475801 0  0.3773700804308007 4.755977563548129 0  0.497488462074617 4.798956607735327 0  0.6128157578737968 4.853502356347138 0  0.7222413029254824 4.919089504006691 0  0.8247112694127393 4.995086410628442 0  0.9192388155425116 5.080761184457488 0  1.004913589371558 5.17528873058726 0  1.080910495993309 5.277758697074518 0  1.146497643652861 5.387184242126203 0  1.201043392264673 5.502511537925383 0  1.244022436451871 5.622629919569198 0  1.275020864524199 5.746382581379033 0  1.293740144673856 5.872577717571572 0  1.293740144673856 6.127422282428428 0  1.2750208645242 6.253617418620967 0  1.244022436451872 6.377370080430801 0  1.201043392264673 6.497488462074616 0  1.146497643652862 6.612815757873795 0  1.08091049599331 6.722241302925481 0  1.00491358937156 6.824711269412737 0  0.9192388155425134 6.91923881554251 0  0.8247112694127412 7.004913589371556 0  0.7222413029254846 7.080910495993308 0  0.6128157578737984 7.146497643652861 0  0.4974884620746181 7.201043392264673 0  0.3773700804308024 7.244022436451871 0  0.2536174186209674 7.275020864524199 0  0.127422282428429 7.293740144673856 0  0 7.6 0  0 7.5 0  0 7.4 0  0.1274222824284281 7.706259855326143 0  0.2536174186209668 7.724979135475801 0  0.3773700804308007 7.755977563548129 0  0.497488462074617 7.798956607735327 0  0.6128157578737968 7.853502356347138 0  0.7222413029254824 7.919089504006691 0  0.8247112694127393 7.995086410628442 0  0.9192388155425116 8.080761184457488 0  1.004913589371558 8.17528873058726 0  1.080910495993309 8.277758697074518 0  1.146497643652861 8.387184242126203 0  1.201043392264673 8.502511537925383 0  1.244022436451871 8.622629919569199 0  1.275020864524199 8.746382581379033 0  1.293740144673856 8.872577717571572 0  1.293740144673856 9.127422282428428 0  1.2750208645242 9.253617418620966 0  1.244022436451872 9.377370080430801 0  1.201043392264673 9.497488462074616 0  1.146497643652862 9.612815757873795 0  1.08091049599331 9.722241302925481 0  1.00491358937156 9.824711269412738 0  0.9192388155425134 9.91923881554251 0  0.8247112694127412 10.00491358937156 0  0.7222413029254846 10.08091049599331 0  0.6128157578737984 10.14649764365286 0  0.4974884620746181 10.20104339226467 0  0.3773700804308024 10.24402243645187 0  0.2536174186209674 10.2750208645242 0  0.127422282428429 10.29374014467386 0  0 10.6 0  0 10.5 0  0 10.4 0  0.1274222824284281 10.70625985532614 0  0.2536174186209668 10.7249791354758 0  0.3773700804308007 10.75597756354813 0  0.497488462074617 10.79895660773533 0  0.6128157578737968 10.85350235634714 0  0.7222413029254824 10.91908950400669 0  0.8247112694127393 10.99508641062844 0  0.9192388155425116 11.08076118445749 0  1.004913589371558 11.17528873058726 0  1.080910495993309 11.27775869707452 0  1.146497643652861 11.3871842421262 0  1.201043392264673 11.50251153792538 0  1.244022436451871 11.6226299195692 0  1.275020864524199 11.74638258137903 0  1.293740144673856 11.87257771757157 0  1.293740144673856 12.12742228242843 0  1.2750208645242 12.25361741862097 0  1.244022436451872 12.3773700804308 0  1.201043392264673 12.49748846207462 0  1.146497643652862 12.6128157578738 0  1.08091049599331 12.72224130292548 0  1.00491358937156 12.82471126941274 0  0.9192388155425134 12.91923881554251 0  0.8247112694127412 13.00491358937156 0  0.7222413029254846 13.08091049599331 0  0.6128157578737984 13.14649764365286 0  0.4974884620746181 13.20104339226467 0  0.3773700804308024 13.24402243645187 0  0.2536174186209674 13.2750208645242 0  0.127422282428429 13.29374014467386 0  0 13.6 0  0 13.5 0  0 13.4 0  0.1274222824284281 13.70625985532614 0  0.2536174186209668 13.7249791354758 0  0.3773700804308007 13.75597756354813 0  0.497488462074617 13.79895660773533 0  0.6128157578737968 13.85350235634714 0  0.7222413029254824 13.91908950400669 0  0.8247112694127393 13.99508641062844 0  0.9192388155425116 14.08076118445749 0  1.004913589371558 14.17528873058726 0  1.080910495993309 14.27775869707452 0  1.146497643652861 14.3871842421262 0  1.201043392264673 14.50251153792538 0  1.244022436451871 14.6226299195692 0  1.275020864524199 14.74638258137903 0  1.293740144673856 14.87257771757157 0  1.293740144673856 15.12742228242843 0  1.2750208645242 15.25361741862097 0  1.244022436451872 15.3773700804308 0  1.201043392264673 15.49748846207462 0  1.146497643652862 15.6128157578738 0  1.08091049599331 15.72224130292548 0  1.00491358937156 15.82471126941274 0  0.9192388155425134 15.91923881554251 0  0.8247112694127412 16.00491358937156 0  0.7222413029254846 16.08091049599331 0  0.6128157578737984 16.14649764365286 0  0.4974884620746181 16.20104339226467 0  0.3773700804308024 16.24402243645187 0  0.2536174186209674 16.2750208645242 0  0.127422282428429 16.29374014467385 0  0 17.87857142857143 0  0 17.75714285714286 0  0 17.63571428571429 0  0 17.51428571428571 0  0 17.39285714285714 0  0 17.27142857142857 0  0 17.15 0  0 17.02857142857143 0  0 16.90714285714286 0  0 16.78571428571428 0  0 16.66428571428571 0  0 16.54285714285714 0  0 16.42142857142857 0  17.8705035971223 18 0  17.7410071942446 18 0  17.61151079136691 18 0  17.48201438848921 18 0  17.35251798561151 18 0  17.22302158273381 18 0  17.09352517985612 18 0  16.96402877697842 18 0  16.83453237410072 18 0  16.70503597122302 18 0  16.57553956834532 18 0  16.44604316546762 18 0  16.31654676258993 18 0  16.18705035971223 18 0  16.05755395683453 18 0  15.92805755395683 18 0  15.79856115107913 18 0  15.66906474820144 18 0  15.53956834532374 18 0  15.41007194244604 18 0  15.28057553956834 18 0  15.15107913669064 18 0  15.02158273381295 18 0  14.89208633093525 18 0  14.76258992805755 18 0  14.63309352517985 18 0  14.50359712230215 18 0  14.37410071942446 18 0  14.24460431654676 18 0  14.11510791366906 18 0  13.98561151079136 18 0  13.85611510791366 18 0  13.72661870503597 18 0  13.59712230215827 18 0  13.46762589928057 18 0  13.33812949640287 18 0  13.20863309352517 18 0  13.07913669064748 18 0  12.94964028776977 18 0  12.82014388489208 18 0  12.69064748201438 18 0  12.56115107913668 18 0  12.43165467625898 18 0  12.30215827338128 18 0  12.17266187050359 18 0  12.04316546762589 18 0  11.91366906474819 18 0  11.78417266187049 18 0  11.65467625899279 18 0  11.52517985611509 18 0  11.3956834532374 18 0  11.2661870503597 18 0  11.136690647482 18 0  11.0071942446043 18 0  10.8776978417266 18 0  10.7482014388489 18 0  10.6187050359712 18 0  10.48920863309351 18 0  10.35971223021581 18 0  10.23021582733811 18 0  10.10071942446041 18 0  9.971223021582714 18 0  9.841726618705016 18 0  9.712230215827317 18 0  9.582733812949618 18 0  9.453237410071921 18 0  9.323741007194224 18 0  9.194244604316525 18 0  9.064748201438828 18 0  8.935251798561131 18 0  8.805755395683434 18 0  8.676258992805735 18 0  8.546762589928038 18 0  8.417266187050341 18 0  8.287769784172642 18 0  8.158273381294947 18 0  8.028776978417248 18 0  7.899280575539549 18 0  7.769784172661854 18 0  7.640287769784155 18 0  7.510791366906458 18 0  7.381294964028761 18 0  7.251798561151062 18 0  7.122302158273365 18 0  6.992805755395668 18 0  6.86330935251797 18 0  6.733812949640273 18 0  6.604316546762576 18 0  6.474820143884878 18 0  6.34532374100718 18 0  6.215827338129483 18 0  6.086330935251786 18 0  5.956834532374087 18 0  5.827338129496392 18 0  5.697
[...]
<PointData  Vectors="f_21"> 
<DataArray  type="Float64"  Name="f_21"  NumberOfComponents="3" format="ascii">-9.4629133406027297e-04 -7.0796285953449135e-04 0.0000000000000000e+00  0.0000000000000000e+00 0.0000000000000000e+00 0.0000000000000000e+00  -1.7213859753688070e-03 -6.2252491271880123e-03 0.0000000000000000e+00  -2.5703844625095599e-03 -1.0983256511769976e-02 0.0000000000000000e+00  -2.5966126843372755e-03 -1.0983135136940545e-02 0.0000000000000000e+00  -1.8658775065592721e-03 -1.5501597031590939e-02 0.0000000000000000e+00  -6.2005546640390421e-04 -1.8967925137896767e-02 0.0000000000000000e+00  -1.9812268431504122e-04 -1.8967977770619315e-02 0.0000000000000000e+00  2.0452443399185285e-03 -2.5086432960093063e-02 0.0000000000000000e+00  4.0175985033900725e-03 -2.8365437621836437e-02 0.0000000000000000e+00  4.5769628118118716e-03 -2.8365653799113436e-02 0.0000000000000000e+00  7.6542308074158422e-03 -3.4968495519727652e-02 0.0000000000000000e+00  1.1275736578117515e-02 -3.6895801505633305e-02 0.0000000000000000e+00  1.2314924474915568e-02 -3.6897020174279191e-02 0.0000000000000000e+00  1.7555154999359144e-02 -4.5423142039878760e-02 0.0000000000000000e+00  2.0322460965888512e-02 -5.3565643293000155e-02 0.0000000000000000e+00  1.8884657170048596e-02 -5.4969656555696106e-02 0.0000000000000000e+00  4.1236400748822961e-02 -1.1428535027667082e-01 0.0000000000000000e+00  2.2221290093486556e-02 -1.1274958354582688e-01 0.0000000000000000e+00  1.8168230418941951e-02 -7.5223791616202781e-02 0.0000000000000000e+00  1.7923247396661589e-02 -7.5223835150364210e-02 0.0000000000000000e+00  1.4590289911266246e-02 -6.0230575219958893e-02 0.0000000000000000e+00  1.3370406164842497e-02 -6.0229086606723832e-02 0.0000000000000000e+00  9.6382061293898494e-03 -3.9514795104625917e-02 0.0000000000000000e+00  9.1244891806563835e-03 -3.9514785111287261e-02 0.0000000000000000e+00  6.3013565771817444e-03 -2.2291663447750170e-02 0.0000000000000000e+00  5.6622448511191538e-03 -2.2291432341219095e-02 0.0000000000000000e+00  1.5711152915245420e-03 -1.2306480869505418e-03 0.0000000000000000e+00  0.0000000000000000e+00 0.0000000000000000e+00 0.0000000000000000e+00  -1.0088556598969556e-03 -6.2454477156333957e-03 0.0000000000000000e+00  -5.0948801630571231e-04 -6.3134622619155792e-03 0.0000000000000000e+00  -3.0657010931580401e-04 -7.0139457897557961e-03 0.0000000000000000e+00  -1.2451804686917586e-04 -1.5959391871164082e-02 0.0000000000000000e+00  8.6484829807524080e-04 -1.6433545616357927e-02 0.0000000000000000e+00  2.0915493043321249e-03 -1.8541978434447395e-02 0.0000000000000000e+00  2.2362297004482651e-04 -8.4392698395527321e-03 0.0000000000000000e+00  1.2595875268857149e-03 -1.0722709135590876e-02 0.0000000000000000e+00  3.0538539184114363e-03 -2.2768638223493169e-02 0.0000000000000000e+00  5.8109097542947928e-03 -2.8599505040166295e-02 0.0000000000000000e+00  3.2916058788148130e-03 -2.5864740275746378e-02 0.0000000000000000e+00  9.5624877290005315e-03 -3.5712635458769883e-02 0.0000000000000000e+00  4.7574278423030266e-03 -2.6521149425143071e-02 0.0000000000000000e+00  5.5238648515596143e-03 -3.0027997856461004e-02 0.0000000000000000e+00  1.0075217473081257e-02 -3.6366203602531386e-02 0.0000000000000000e+00  1.1306402913901305e-02 -4.1212103487997087e-02 0.0000000000000000e+00  1.8296651923214970e-02 -4.5505145247489422e-02 0.0000000000000000e+00  1.9226651174105595e-02 -4.5599181716078102e-02 0.0000000000000000e+00  1.8291705775611553e-02 -5.1779664744091625e-02 0.0000000000000000e+00  7.4821391634225668e-03 -3.6814280520509515e-02 0.0000000000000000e+00  1.0931334396910131e-02 -5.0772292599620211e-02 0.0000000000000000e+00  8.5150329502265178e-03 -4.6495453292898239e-02 0.0000000000000000e+00  1.5292900517273146e-02 -6.4889178162541861e-02 0.0000000000000000e+00  1.8953899159060945e-02 -6.3403963297186630e-02 0.0000000000000000e+00  1.3489376469859279e-02 -8.4612096453904287e-02 0.0000000000000000e+00  -9.7519309751699270e-04 -7.0960347609534138e-04 0.0000000000000000e+00  -9.9620181354836404e-04 -7.1559824685970565e-04 0.0000000000000000e+00  -1.0007091958645700e-03 -7.2040700101574950e-04 0.0000000000000000e+00  -9.8706123577212818e-04 -7.1959628165115354e-04 0.0000000000000000e+00  -9.5625040243913417e-04 -7.1016260893546083e-04 0.0000000000000000e+00  -9.1001079464212169e-04 -6.9079625454434527e-04 0.0000000000000000e+00  -8.4986032154620744e-04 -6.6108307560982225e-04 0.0000000000000000e+00  -7.7693325733724271e-04 -6.2073799991021626e-04 0.0000000000000000e+00  -6.9177927885980147e-04 -5.6940548709272178e-04 0.0000000000000000e+00  -5.9434180184670890e-04 -5.0620232430032409e-04 0.0000000000000000e+00  -4.8382311744355871e-04 -4.2930446877009146e-04 0.0000000000000000e+00  -3.5826481748701218e-04 -3.3470639071323313e-04 0.0000000000000000e+00  -2.0971907922865746e-04 -2.1284289055369508e-04 0.0000000000000000e+00  -9.4265086674069805e-04 -7.3730106114251032e-04 0.0000000000000000e+00  -9.2942298017251992e-04 -7.7787565546005714e-04 0.0000000000000000e+00  -9.1040963720725044e-04 -8.4571844892914827e-04 0.0000000000000000e+00  -8.9301659599904141e-04 -9.5034814228885914e-04 0.0000000000000000e+00  -8.8115513104249652e-04 -1.0962697968316065e-03 0.0000000000000000e+00  -8.7964153482248319e-04 -1.2867102377113156e-03 0.0000000000000000e+00  -8.9204924456076369e-04 -1.5233835347862675e-03 0.0000000000000000e+00  -9.2052690320865789e-04 -1.8082775723898834e-03 0.0000000000000000e+00  -9.6711325148512311e-04 -2.1437627763796390e-03 0.0000000000000000e+00  -1.0320007560999103e-03 -2.5336342335507880e-03 0.0000000000000000e+00  -1.1146830308310120e-03 -2.9834921839305153e-03 0.0000000000000000e+00  -1.2134913922923058e-03 -3.4995872156571048e-03 0.0000000000000000e+00  -1.3263466807024887e-03 -4.0887307916033797e-03 0.0000000000000000e+00  -1.4515113994191902e-03 -4.7508323717940634e-03 0.0000000000000000e+00  -1.5858078012035333e-03 -5.4710747769774583e-03 0.0000000000000000e+00  -1.8437006936960045e-03 -6.9695233295381928e-03 0.0000000000000000e+00  -1.9413789755515713e-03 -7.6698632129798359e-03 0.0000000000000000e+00  -2.0095627435974851e-03 -8.3072552403757414e-03 0.0000000000000000e+00  -2.0541451115780509e-03 -8.8751788515147676e-03 0.0000000000000000e+00  -2.0902966241885023e-03 -9.3761637679446053e-03 0.0000000000000000e+00  -2.1328509189038531e-03 -9.8119601972640937e-03 0.0000000000000000e+00  -2.1911572766491476e-03 -1.0179903588699935e-02 0.0000000000000000e+00  -2.2652676634013604e-03 -1.0474847515570910e-02 0.0000000000000000e+00  -2.3486696472588783e-03 -1.0693147227214551e-02 0.0000000000000000e+00  -2.4289645886230575e-03 -1.0836848301479303e-02 0.0000000000000000e+00  -2.4940438858287997e-03 -1.0916865998229783e-02 0.0000000000000000e+00  -2.5369246069662016e-03 -1.0952243671531787e-02 0.0000000000000000e+00  -2.5593183106138511e-03 -1.0964093158626622e-02 0.0000000000000000e+00  -2.5678294756574858e-03 -1.0969605108503786e-02 0.0000000000000000e+00  -2.5700713458914940e-03 -1.0975714352354173e-02 0.0000000000000000e+00  -2.5896825622921033e-03 -1.0983119549699084e-02 0.0000000000000000e+00  -2.5830407472227225e-03 -1.0983196583660759e-02 0.0000000000000000e+00  -2.5765664745366098e-03 -1.0983272599075179e-02 0.0000000000000000e+00  -2.5971172039258527e-03 -1.0973968940706064e-02 0.0000000000000000e+00  -2.5973377029022237e-03 -1.0963528139866410e-02 0.0000000000000000e+00  -2.5928574094615945e-03 -1.0952675782686713e-02 0.0000000000000000e+00  -2.5763120585112274e-03 -1.0949060344382035e-02 0.0000000000000000e+00  -2.5400889743381911e-03 -1.0968920718674228e-02 0.0000000000000000e+00  -2.4841811552258177e-03 -1.1034995369480813e-02 0.0000000000000000e+00  -2.4137957575696648e-03 -1.1165008321049030e-02 0.0000000000000000e+00  -2.3419235827201973e-03 -1.1370966936311837e-02 0.0000000000000000e+00  -2.2803543923423540e-03 -1.1654540314403827e-02 0.0000000000000000e+00  -2.2362956123322449e-03 -1.2011815807524279e-02 0.0000000000000000e+00  -2.2090668589803712e-03 -1.2437439492122856e-02 0.0000000000000000e+00  -2.1883427085474037e-03 -1.2927054708582172e-02 0.0000000000000000e+00  -2.1581031828609761e-03 -1.3482629022033059e-02 0.0000000000000000e+00  -2.0998785492864240e-03 -1.4103144253367120e-02 0.0000000000000000e+00  -2.0026875321356007e-03 -1.4783830761671475e-02 0.0000000000000000e+00  -1.6977818883044129e-03 -1.6221759117424024e-02 0.0000000000000000e+00  -1.5120393535833340e-03 -1.6904672415492039e-02 0.0000000000000000e+00  -1.3218169682348865e-03 -1.7525623666158945e-02 0.0000000000000000e+00  -1.1413837295742441e-03 -1.8070874311627384e-02 0.0000000000000000e+00  -9.8495975091564096e-04 -1.8539748006045267e-02 0.0000000000000000e+00  -8.6447401544306713e-04 -1.8930109403699553e-02 0.0000000000000000e+00  -7.8475473222772737e-04 -1.9237366427174551e-02 0.0000000000000000e+00  -7.4154744871848105e-04 -1.9456067264423470e-02 0.0000000000000000e+00  -7.2500269236256375e-04 -1.9583074701336606e-02 0.0000000000000000e+00  -7.2008200921811025e-04 -1.9621633146599638e-02 0.0000000000000000e+00  -7.1305444406786068e-04 -1.9584604054488253e-02 0.0000000000000000e+00  -6.9623133440698307e-04 -1.9493379905656916e-02 0.0000000000000000e+00  -6.7138452943285565e-04 -1.9371499473317188e-02 0.0000000000000000e+00  -6.4551052531410620e-04 -1.9238490564400107e-02 0.0000000000000000e+00  -6.2682191749565200e-04 -1.9103168271132471e-02 0.0000000000000000e+00  -3.0323514200417806e-04 -1.8967909683706995e-02 0.0000000000000000e+00  -4.0864211283919629e-04 -1.8967952782060798e-02 0.0000000000000000e+00  -5.1419948478489573e-04 -1.8967994615854140e-02 0.0000000000000000e+00  -1.9167755885354641e-04 -1.9101554947360981e-02 0.0000000000000000e+00  -1.7088059855536344e-04 -1.9232465928587877e-02 0.0000000000000000e+00  -1.3131860825011730e-04 -1.9360411063129808e-02 0.0000000000000000e+00  -6.5837106963703492e-05 -1.9492254492124703e-02 0.0000000000000000e+00  3.2579541061418068e-05 -1.9643665059139125e-02 0.0000000000000000e+00  1.6270509526963405e-04 -1.9836564449973591e-02 0.0000000000000000e+00  3.1798474455735121e-04 -2.0087169548771350e-02 0.0000000000000000e+00  4.8443305189095880e-04 -2.0405493093661457e-02 0.0000000000000000e+00  6.5013493009417542e-04 -2.0791330080890152e-02 0.0000000000000000e+00  8.0845618021896197e-04 -2.1239644490489280e-02 0.0000000000000000e+00  9.6090713481247390e-04 -2.1744939482218971e-02 0.0000000000000000e+00  1.1179925579064671e-03 -2.2304042769909355e-02 0.0000000000000000e+00  1.2948502452351401e-03 -2.2920306191100238e-02 0.0000000000000000e+00  1.5065817073228432e-03 -2.3594635894956601e-02 0.0000000000000000e+00  1.7591431069742417e-03 -2.4323943031573841e-02 0.0000000000000000e+00  2.3482592273947785e-03 -2.5847389538400989e-02 0.0000000000000000e+00  2.6489264327774435e-03 -2.6563660648389571e-02 0.0000000000000000e+00  2.9337901495812288e-03 -2.7211398021094416e-02 0.0000000000000000e+00  3.1913725662204577e-03 -2.7775866360707734e-02 0.0000000000000000e+00  3.4093699368246124e-03 -2.8254235303253328e-02 0.0000000000000000e+00  3.5793089696156146e-03 -2.8646409122350350e-02 0.0000000000000000e+00  3.6989162032759434e-03 -2.8947017748204820e-02 0.0000000000000000e+00  3.7742689644056034e-03 -2.9150719819257764e-02 0.0000000000000000e+00  3.8182414378361458e-03 -2.9254881914624546e-02 0.0000000000000000e+00  3.8466193999136811e-03 -2.9263925899822463e-02 0.0000000000000000e+00  3.8736931991528332e-03 -2.9191704129246654e-02 0.0000000000000000e+00  3.9081085832200508e-03 -2.9061879675148918e-02 0.0000000000000000e+00  3.9470959527401510e-03 -2.8898950833196432e-02 0.0000000000000000e+00  3.9834704561205062e-03 -2.8723223487992684e-02 0.0000000000000000e+00  4.0086265067876426e-03 -2.8544480747875536e-02 0.0000000000000000e+00  4.4375034220357290e-03 -2.8365543770978139e-02 0.0000000000000000e+00  4.2977411972993608e-03 -2.8365547755936599e-02 0.0000000000000000e+00  4.1578221596133428e-03 -2.8365549583126724e-02 0.0000000000000000e+00  4.5855032041599653e-03 -2.8542990510059100e-02 0.0000000000000000e+00  4.6127109770988011e-03 -2.8717210991359727e-02 0.0000000000000000e+00  4.6630380242648909e-03 -2.8887603335423766e-02 0.0000000000000000e+00  4.7437686250820206e-03 -2.9060841097035751e-02 0.0000000000000000e+00  4.8620375139931359e-03 -2.9252502376282883e-02 0.0000000000000000e+00  5.0166175554086532e-03 -2.9484623886561572e-02 0.0000000000000000e+00  5.2005207617996166e-03 -2.9773355930631639e-02 0.0000000000000000e+00  5.3998068972793559e-03 -3.0127672810579285e-02 0.0000000000000000e+00  5.6037691920024068e-03 -3.0546426583632567e-02 0.0000000000000000e+00  5.8072932643452903e-03 -3.1024225962024327e-02 0.0000000000000000e+00  6.0148045004133717e-03 -3.1554705148650823e-02 0.0000000000000000e+00  6.2401550430428339e-03 -3.2135664383755834e-02 0.0000000000000000e+00  6.5034837116310640e-03 -3.2769021762039809e-02 0.0000000000000000e+00  6.8238666585077297e-03 -3.3457308081609967e-02 0.0000000000000000e+00  7.2104001783597814e-03 -3.4197436903743307e-02 0.0000000000000000e+00  8.1313449035393896e-03 -3.5735096873360732e-02 0.0000000000000000e+00  8.6116065020919209e-03 -3.6451354818081178e-02 0.0000000000000000e+00  9.0722039569433588e-03 -3.7090417522524947e-02 0.0000000000000000e+00  9.4950824941974644e-03 -3.7634443601058477e-02 0.0000000000000000e+00  9.8641656959475785e-03 -3.8078160333490312e-02 0.0000000000000000e+00  1.0169731649684148e-02 -3.8419687179699201e-02 0.0000000000000000e+00  1.0409991049621578e-02 -3.8651970438987708e-02 0.0000000000000000e+00  1.0592681977773907e-02 -3.8769276130898318e-02 0.0000000000000000e+00  1.0732496133980696e-02 -3.8769920693680272e-02 0.0000000000000000e+00  1.0846329804535922e-02 -3.8660626153466833e-02 0.0000000000000000e+00  1.0948545465675622e-02 -3.8458335039411956e-02 0.0000000000000000e+00  1.1046879093325371e-02 -3.8189896765291484e-02 0.0000000000000000e+00  1.1137157625339403e-02 -3.7882358279021422e-02 0.0000000000000000e+00  1.1210972403891619e-02 -3.7557906546012439e-02 0.0000000000000000e+00  1.1258935302263075e-02 -3.7227715906274203e-02 0.0000000000000000e+00  1.2055540799318748e-02 -3.6896667041007469e-02 0.0000000000000000e+00  1.1795838789123405e-02 -3.6896413578351016e-02 0.0000000000000000e+00  1.1535947679385207e-02 -3.6896157664695672e-02 0.0000000000000000e+00  1.2330656224467900e-02 -3.7227186594260969e-02 0.0000000000000000e+00  1.2379972416153887e-02 -3.7552721260082016e-02 0.0000000000000000e+00  1.2467216157236480e-02 -3.7871308499288422e-02 0.0000000000000000e+00  1.2599649521681638e-02 -3.8188122104115201e-02 0.0000000000000000e+00  1.2784460520137965e-02 -3.8517511529492517e-02 0.0000000000000000e+00  1.3020584472459278e-02 -3.8880481875500937e-02 0.0000000000000000e+00  1.3301396745908673e-02 -3.9292095725058387e-02 0.0000000000000000e+00  1.3614039618216197e-02 -3.9760200207562567e-02 0.0000000000000000e+00  1.3949997083629302e-02 -4.0282818356959238e-02 0.0000000000000000e+00  1.4307592195771072e-02 -4.0854686026969275e-02 0.0000000000000000e+00  1.4695396357837167e-02 -4.1471343635550259e-02 0.0000000000000000e+00  1.5130990714454562e-02 -4.2134355313026568e-02 0.0000000000000000e+00  1.5635059342023114e-02 -4.2852509810158049e-02 0.0000000000000000e+00  1.6219522016134968e-02 -4.3638466270135727e-02 0.0000000000000000e+00  1.6874339507220823e-02 -4.4499608223342244e-02 0.0000000000000000e+00  1.8199077472122273e-02 -4.6375609864444882e-02 0.0000000000000000e+00  1.8751783724923275e-02 -4.7300965026313847e-02 0.0000000000000000e+00  1.9194116322818762e-02 -4.8163317778944482e-02 0.0000000000000000e+00  1.9534146980822478e-02 -4.8935521700159551e-02 0.0000000000000000e+00  1.9793500239887362e-02 -4.9615116788234076e-02 0.0000000000000000e+00  1.9991966849957618e-02 -5.0213396839067760e-02 0.0000000000000000e+00  2.0143733407671373e-02 -5.0743281757442242e-02 0.0000000000000000e+00  2.0257589528300521e-02 -5.1217816534476518e-02 0.0000000000000000e+00  2.0338274061817235e-02 -5.1647009402788366e-02 0.0000000000000000e+00  2.0389300157616461e-02 -5.2036834475713244e-02 0.0000000000000000e+00  2.0413053877606089e-02 -5.2390178969268855e-02 0.0000000000000000e+00  2.0412553598598681e-02 -5.2705903354268280e-02 0.0000000000000000e+00  2.0393418091588209e-02 -5.2981300969131548e-02 0.0000000000000000e+00  2.0362303904876759e-02 -5.3213083821293597e-02 0.0000000000000000e+00  2.0333655661864045e-02 -5.3402518264256772e-02 0.0000000000000000e+00  1.9040117807200753e-02 -5.4794555700878107e-02 0.0000000000000000e+00  1.9186459593947724e-02 -5.4615820577390783e-02 0.0000000000000000e+00  1.9315902829926800e-02 -5.4437870203621445e-02 0.0000000000000000e+00  1.9426132839395403e-02 -5.4266397768413431e-02 0.0000000000000000e+00  1.9518110557286604e-02 -5.4106681914372103e-02 0.0000000000000000e+00  1.9594856755346998e-02 -5.3962811281616993e-02 0.0000000000000000e+00  1.9660702638237375e-02 -5.3838091824171007e-02 0.0000000000000000e+00  1.9720940959889320e-02 -5.3735134755515557e-02 0.0000000000000000e+00  1.9781699616961374e-02 -5.3655826789260730e-02 0.0000000000000000e+00  1.9849764706037082e-02 -5.3601038947499423e-02 0.0000000000000000e+00  1.9932779261999465e-02 -5.3570419909315277e-02 0.0000000000000000e+00  2.0038207352694081e-02 -5.3560177571946865e-02 0.0000000000000000e+00  2.0170568457685657e-02 -5.3563124479215851e-02 0.0000000000000000e+00  4.1162813595450744e-02 -1.1291728641769330e-01 0.0000000000000000e+00  4.1085035896360804e-02 -1.1154871877242678e-01 0.0000000000000000e+00  4.1001827296649002e-02 -1.1016536342621071e-01 0.0000000000000000e+00  4.0909368887573384e-02 -1.0876002245389557e-01 0.0000000000000000e+00  4.0802809858200957e-02 -1.0733005697692359e-01 0.0000000000000000e+00  4.0678940100872592e-02 -1.0587618908022922e-01 0.0000000000000000e+00  4.0535941722503264e-02 -1.0440089433326880e-01 0.0000000000000000e+00  4.0372956229066052e-02 -1.0290791430170683e-01 0.0000000000000000e+00  4.0190659160566806e-02 -1.0140154486059605e-01 0.0000000000000000e+00  3.9990454263608331e-02 -9.9886145404963433e-02 0.0000000000000000e+00  3.9774395135319635e-02 -9.8365826484688765e-02 0.0000000000000000e+00  3.9544759666386237e-02 -9.6844464800201188e-02 0.0000000000000000e+00  3.9303892964316321e-02 -9.5325591665511147e-02 0.0000000000000000e+00  3.9053853274811527e-02 -9.3812436101275654e-02 0.0000000000000000e+00  3.8796205158379476e-02 -9.2308116314449407e-02 0.0000000000000000e+00  3.8531843050311279e-02 -9.0815913546226132e-02 0.0000000000000000e+00  3.8261180088873026e-02 -8.9339370585226202e-02 0.0000000000000000e+00  3.7983646231107844e-02 -8.7882993195178352e-02 0.0000000000000000e+00  3.7698301774358491e-02 -8.6452090885377378e-02 0.0000000000000000e+00  3.7403632568076710e-02 -8.5053527225446873e-02 0.0000000000000000e+00  3.7097806536177877e-02 -8.3696340658174120e-02 0.0000000000000000e+00  3.6778801764555162e-02 -8.2393143947581751e-02 0.0000000000000000e+00  3.6444615550066596e-02 -8.1165442715916136e-02 0.0000000000000000e+00  3.6102978047626313e-02 -8.0055313276044163e-02 0.0000000000000000e+00  3.5767497555009124e-02 -7.9037906554478218e-02 0.0000000000000000e+00  3.5438106943042766e-02 -7.8085676503374266e-02 0.0000000000000000e+00  3.5113524087454932e-02 -7.7187660662777755e-02 0.0000000000000000e+00  3.4793364588607184e-02 -7.6336362384006692e-02 0.0000000000000000e+00  3.4477437560280835e-02 -7.5526341068171188e-02 0.0000000000000000e+00  3.4166144872230256e-02 -7.4753283753933614e-02 0.0000000000000000e+00  3.3860161238232669e-02 -7.4013414301405150e-02 0.0000000000000000e+00  3.3560520464900198e-02 -7.3303245506512113e-02 0.0000000000000000e+00  3.3268486022658431e-02 -7.2619361722389739e-02 0.0000000000000000e+00  3.2985330470384641e-02 -7.1958420669563511e-02 0.0000000000000000e+00  3.2712452689455683e-02 -7.1316908710129370e-02 0.0000000000000000e+00  3.2451025781639775e-02 -7.0691319202046812e-02 0.0000000000000000e+00  3.2202027657836779e-02 -7.0078197406251222e-02 0.0000000000000