<?xml version="1.0"?>
<VTKFile type="UnstructuredGrid"  version="0.1"  >
<UnstructuredGrid>
<Piece  NumberOfPoints="12853" NumberOfCells="23493">
<Points>
<DataArray  type="Float64"  NumberOfComponents="3"  format="ascii">-3.187178156719634e-14 1.7 0  0 0 0  1.3 3 0  -3.185690647650846e-14 4.300000000000001 0  -3.187178156719634e-14 4.699999999999999 0  1.3 6 0  -3.185690647650846e-14 7.300000000000001 0  -3.187178156719634e-14 7.699999999999999 0  1.3 9 0  -3.185690647650846e-14 10.3 0  -3.187178156719634e-14 10.7 0  1.3 12 0  -3.185690647650846e-14 13.3 0  -3.187178156719634e-14 13.7 0  1.3 15 0  -3.185690647650846e-14 16.3 0  0 18 0  18 18 0  17.99999999999997 16.3 0  17.99999999999997 13.7 0  17.99999999999997 13.3 0  17.99999999999997 10.7 0  17.99999999999997 10.3 0  17.99999999999997 7.7 0  17.99999999999997 7.3 0  17.99999999999997 4.7 0  17.99999999999997 4.3 0  17.99999999999997 1.7 0  18 0 0  4.3 3 0  7.3 3 0  10.3 3 0  4.3 6 0  7.3 6 0  10.3 6 0  13.3 3 0  16.3 3 0  13.3 6 0  16.3 6 0  4.3 9 0  4.3 12 0  7.3 9 0  10.3 9 0  7.3 12 0  10.3 12 0  4.3 15 0  7.3 15 0  10.3 15 0  13.3 9 0  13.3 12 0  16.3 9 0  16.3 12 0  13.3 15 0  16.3 15 0  0 1.578571428571429 0  0 1.457142857142856 0  0 1.335714285714285 0  0 1.214285714285712 0  0 1.092857142857142 0  0 0.9714285714285715 0  0 0.8499999999999979 0  0 0.7285714285714278 0  0 0.6071428571428577 0  0 0.485714285714284 0  0 0.3642857142857139 0  0 0.2428571428571438 0  0 0.1214285714285701 0  0.1274222824284281 1.706259855326144 0  0.2536174186209668 1.7249791354758 0  0.3773700804308007 1.755977563548128 0  0.497488462074617 1.798956607735327 0  0.6128157578737968 1.853502356347138 0  0.7222413029254824 1.919089504006691 0  0.8247112694127393 1.995086410628442 0  0.9192388155425116 2.080761184457488 0  1.004913589371558 2.17528873058726 0  1.080910495993309 2.277758697074517 0  1.146497643652861 2.387184242126203 0  1.201043392264673 2.502511537925383 0  1.244022436451871 2.622629919569199 0  1.275020864524199 2.746382581379033 0  1.293740144673856 2.872577717571571 0  1.293740144673856 3.127422282428428 0  1.2750208645242 3.253617418620966 0  1.244022436451872 3.3773700804308 0  1.201043392264673 3.497488462074616 0  1.146497643652862 3.612815757873796 0  1.08091049599331 3.722241302925481 0  1.00491358937156 3.824711269412738 0  0.9192388155425134 3.91923881554251 0  0.8247112694127412 4.004913589371556 0  0.7222413029254846 4.080910495993308 0  0.6128157578737984 4.146497643652861 0  0.4974884620746181 4.201043392264673 0  0.3773700804308024 4.244022436451871 0  0.2536174186209674 4.275020864524199 0  0.127422282428429 4.293740144673856 0  0 4.6 0  0 4.5 0  0 4.4 0  0.1274222824284281 4.706259855326143 0  0.2536174186209668 4.724979135475801 0  0.3773700804308007 4.755977563548129 0  0.497488462074617 4.798956607735327 0  0.6128157578737968 4.853502356347138 0  0.7222413029254824 4.919089504006691 0  0.8247112694127393 4.995086410628442 0  0.9192388155425116 5.080761184457488 0  1.004913589371558 5.17528873058726 0  1.080910495993309 5.277758697074518 0  1.146497643652861 5.387184242126203 0  1.201043392264673 5.502511537925383 0  1.244022436451871 5.622629919569198 0  1.275020864524199 5.746382581379033 0  1.293740144673856 5.872577717571572 0  1.293740144673856 6.127422282428428 0  1.2750208645242 6.253617418620967 0  1.244022436451872 6.377370080430801 0  1.201043392264673 6.497488462074616 0  1.146497643652862 6.612815757873795 0  1.08091049599331 6.722241302925481 0  1.00491358937156 6.824711269412737 0  0.9192388155425134 6.91923881554251 0  0.8247112694127412 7.004913589371556 0  0.7222413029254846 7.080910495993308 0  0.6128157578737984 7.146497643652861 0  0.4974884620746181 7.201043392264673 0  0.3773700804308024 7.244022436451871 0  0.2536174186209674 7.275020864524199 0  0.127422282428429 7.293740144673856 0  0 7.6 0  0 7.5 0  0 7.4 0  0.1274222824284281 7.706259855326143 0  0.2536174186209668 7.724979135475801 0  0.3773700804308007 7.755977563548129 0  0.497488462074617 7.798956607735327 0  0.6128157578737968 7.853502356347138 0  0.7222413029254824 7.919089504006691 0  0.8247112694127393 7.995086410628442 0  0.9192388155425116 8.080761184457488 0  1.004913589371558 8.17528873058726 0  1.080910495993309 8.277758697074518 0  1.146497643652861 8.387184242126203 0  1.201043392264673 8.502511537925383 0  1.244022436451871 8.622629919569199 0  1.275020864524199 8.746382581379033 0  1.293740144673856 8.872577717571572 0  1.293740144673856 9.127422282428428 0  1.2750208645242 9.253617418620966 0  1.244022436451872 9.377370080430801 0  1.201043392264673 9.497488462074616 0  1.146497643652862 9.612815757873795 0  1.08091049599331 9.722241302925481 0  1.00491358937156 9.824711269412738 0  0.9192388155425134 9.91923881554251 0  0.8247112694127412 10.00491358937156 0  0.7222413029254846 10.08091049599331 0  0.6128157578737984 10.14649764365286 0  0.4974884620746181 10.20104339226467 0  0.3773700804308024 10.24402243645187 0  0.2536174186209674 10.2750208645242 0  0.127422282428429 10.29374014467386 0  0 10.6 0  0 10.5 0  0 10.4 0  0.1274222824284281 10.70625985532614 0  0.2536174186209668 10.7249791354758 0  0.3773700804308007 10.75597756354813 0  0.497488462074617 10.79895660773533 0  0.6128157578737968 10.85350235634714 0  0.7222413029254824 10.91908950400669 0  0.8247112694127393 10.99508641062844 0  0.9192388155425116 11.08076118445749 0  1.004913589371558 11.17528873058726 0  1.080910495993309 11.27775869707452 0  1.146497643652861 11.3871842421262 0  1.201043392264673 11.50251153792538 0  1.244022436451871 11.6226299195692 0  1.275020864524199 11.74638258137903 0  1.293740144673856 11.87257771757157 0  1.293740144673856 12.12742228242843 0  1.2750208645242 12.25361741862097 0  1.244022436451872 12.3773700804308 0  1.201043392264673 12.49748846207462 0  1.146497643652862 12.6128157578738 0  1.08091049599331 12.72224130292548 0  1.00491358937156 12.82471126941274 0  0.9192388155425134 12.91923881554251 0  0.8247112694127412 13.00491358937156 0  0.7222413029254846 13.08091049599331 0  0.6128157578737984 13.14649764365286 0  0.4974884620746181 13.20104339226467 0  0.3773700804308024 13.24402243645187 0  0.2536174186209674 13.2750208645242 0  0.127422282428429 13.29374014467386 0  0 13.6 0  0 13.5 0  0 13.4 0  0.1274222824284281 13.70625985532614 0  0.2536174186209668 13.7249791354758 0  0.3773700804308007 13.75597756354813 0  0.497488462074617 13.79895660773533 0  0.6128157578737968 13.85350235634714 0  0.7222413029254824 13.91908950400669 0  0.8247112694127393 13.99508641062844 0  0.9192388155425116 14.08076118445749 0  1.004913589371558 14.17528873058726 0  1.080910495993309 14.27775869707452 0  1.146497643652861 14.3871842421262 0  1.201043392264673 14.50251153792538 0  1.244022436451871 14.6226299195692 0  1.275020864524199 14.74638258137903 0  1.293740144673856 14.87257771757157 0  1.293740144673856 15.12742228242843 0  1.2750208645242 15.25361741862097 0  1.244022436451872 15.3773700804308 0  1.201043392264673 15.49748846207462 0  1.146497643652862 15.6128157578738 0  1.08091049599331 15.72224130292548 0  1.00491358937156 15.82471126941274 0  0.9192388155425134 15.91923881554251 0  0.8247112694127412 16.00491358937156 0  0.7222413029254846 16.08091049599331 0  0.6128157578737984 16.14649764365286 0  0.4974884620746181 16.20104339226467 0  0.3773700804308024 16.24402243645187 0  0.2536174186209674 16.2750208645242 0  0.127422282428429 16.29374014467385 0  0 17.87857142857143 0  0 17.75714285714286 0  0 17.63571428571429 0  0 17.51428571428571 0  0 17.39285714285714 0  0 17.27142857142857 0  0 17.15 0  0 17.02857142857143 0  0 16.90714285714286 0  0 16.78571428571428 0  0 16.66428571428571 0  0 16.54285714285714 0  0 16.42142857142857 0  17.8705035971223 18 0  17.7410071942446 18 0  17.61151079136691 18 0  17.48201438848921 18 0  17.35251798561151 18 0  17.22302158273381 18 0  17.09352517985612 18 0  16.96402877697842 18 0  16.83453237410072 18 0  16.70503597122302 18 0  16.57553956834532 18 0  16.44604316546762 18 0  16.31654676258993 18 0  16.18705035971223 18 0  16.05755395683453 18 0  15.92805755395683 18 0  15.79856115107913 18 0  15.66906474820144 18 0  15.53956834532374 18 0  15.41007194244604 18 0  15.28057553956834 18 0  15.15107913669064 18 0  15.02158273381295 18 0  14.89208633093525 18 0  14.76258992805755 18 0  14.63309352517985 18 0  14.50359712230215 18 0  14.37410071942446 18 0  14.24460431654676 18 0  14.11510791366906 18 0  13.98561151079136 18 0  13.85611510791366 18 0  13.72661870503597 18 0  13.59712230215827 18 0  13.46762589928057 18 0  13.33812949640287 18 0  13.20863309352517 18 0  13.07913669064748 18 0  12.94964028776977 18 0  12.82014388489208 18 0  12.69064748201438 18 0  12.56115107913668 18 0  12.43165467625898 18 0  12.30215827338128 18 0  12.17266187050359 18 0  12.04316546762589 18 0  11.91366906474819 18 0  11.78417266187049 18 0  11.65467625899279 18 0  11.52517985611509 18 0  11.3956834532374 18 0  11.2661870503597 18 0  11.136690647482 18 0  11.0071942446043 18 0  10.8776978417266 18 0  10.7482014388489 18 0  10.6187050359712 18 0  10.48920863309351 18 0  10.35971223021581 18 0  10.23021582733811 18 0  10.10071942446041 18 0  9.971223021582714 18 0  9.841726618705016 18 0  9.712230215827317 18 0  9.582733812949618 18 0  9.453237410071921 18 0  9.323741007194224 18 0  9.194244604316525 18 0  9.064748201438828 18 0  8.935251798561131 18 0  8.805755395683434 18 0  8.676258992805735 18 0  8.546762589928038 18 0  8.417266187050341 18 0  8.287769784172642 18 0  8.158273381294947 18 0  8.028776978417248 18 0  7.899280575539549 18 0  7.769784172661854 18 0  7.640287769784155 18 0  7.510791366906458 18 0  7.381294964028761 18 0  7.251798561151062 18 0  7.122302158273365 18 0  6.992805755395668 18 0  6.86330935251797 18 0  6.733812949640273 18 0  6.604316546762576 18 0  6.474820143884878 18 0  6.34532374100718 18 0  6.215827338129483 18 0  6.086330935251786 18 0  5.956834532374087 18 0  5.827338129496392 18 0  5.697
[...]
<PointData  Vectors="f_21"> 
<DataArray  type="Float64"  Name="f_21"  NumberOfComponents="3" format="ascii">-3.3575500218260938e-03 -2.5065341339044738e-03 0.0000000000000000e+00  0.0000000000000000e+00 0.0000000000000000e+00 0.0000000000000000e+00  -5.7939901845670411e-03 -2.2028999451043210e-02 0.0000000000000000e+00  -8.0142014705689765e-03 -3.8232107314837963e-02 0.0000000000000000e+00  -7.8940538502017110e-03 -3.8231707684879497e-02 0.0000000000000000e+00  -4.1227191406114820e-03 -5.4795746460644439e-02 0.0000000000000000e+00  2.6613401404646467e-03 -6.5093133300209438e-02 0.0000000000000000e+00  4.8153933105515309e-03 -6.5098356524942599e-02 0.0000000000000000e+00  1.5538161808665428e-02 -8.8959899547470592e-02 0.0000000000000000e+00  2.5030661017362982e-02 -9.9299601548368518e-02 0.0000000000000000e+00  2.7577303344943609e-02 -9.9307095394763650e-02 0.0000000000000000e+00  4.1285677829738757e-02 -1.2454889197802999e-01 0.0000000000000000e+00  5.8530676115531380e-02 -1.2829270807257626e-01 0.0000000000000000e+00  6.3378308790204188e-02 -1.2832164911840802e-01 0.0000000000000000e+00  8.6740475867502650e-02 -1.6290872517652905e-01 0.0000000000000000e+00  9.8683424000202108e-02 -1.9292584475120500e-01 0.0000000000000000e+00  9.4143741551436649e-02 -1.9812582897042705e-01 0.0000000000000000e+00  1.7885950115339425e-01 -4.3690113472649844e-01 0.0000000000000000e+00  9.9304234861909799e-02 -4.2947023833041637e-01 0.0000000000000000e+00  8.2647778306563488e-02 -2.7894636867069661e-01 0.0000000000000000e+00  8.2552762406957789e-02 -2.7894664136391317e-01 0.0000000000000000e+00  6.5336599325204275e-02 -2.3411739908743218e-01 0.0000000000000000e+00  5.8685654784855046e-02 -2.3406347192336585e-01 0.0000000000000000e+00  4.0195908217738024e-02 -1.4760033559433550e-01 0.0000000000000000e+00  3.8534324816655176e-02 -1.4759793550961062e-01 0.0000000000000000e+00  2.5800712132099581e-02 -8.6685977709263104e-02 0.0000000000000000e+00  2.2678009872435019e-02 -8.6674815877729350e-02 0.0000000000000000e+00  5.8265648856473265e-03 -4.5852165749647065e-03 0.0000000000000000e+00  0.0000000000000000e+00 0.0000000000000000e+00 0.0000000000000000e+00  -3.2765345765202064e-03 -2.2509641463934249e-02 0.0000000000000000e+00  -1.1461781196490885e-03 -2.2734242015922539e-02 0.0000000000000000e+00  -8.3087907807818983e-04 -2.5421008648259656e-02 0.0000000000000000e+00  2.9572706495115788e-03 -5.7374882042958583e-02 0.0000000000000000e+00  5.9712431522910853e-03 -5.9303608985891092e-02 0.0000000000000000e+00  1.1512518674819523e-02 -6.7145916285041699e-02 0.0000000000000000e+00  1.6695367874969779e-03 -3.0782382062462990e-02 0.0000000000000000e+00  4.2410319260113493e-03 -4.0274512362690786e-02 0.0000000000000000e+00  1.2961039767470773e-02 -8.3681748672137471e-02 0.0000000000000000e+00  2.6330095477948692e-02 -1.0738787642202960e-01 0.0000000000000000e+00  1.9354874185960713e-02 -9.3128351294615497e-02 0.0000000000000000e+00  4.9501475582756652e-02 -1.2879525998203217e-01 0.0000000000000000e+00  2.5746868512931644e-02 -9.5714839569465832e-02 0.0000000000000000e+00  2.6929826728375236e-02 -1.0881450583863916e-01 0.0000000000000000e+00  5.0220945885213218e-02 -1.3144152589320118e-01 0.0000000000000000e+00  5.6380764613053497e-02 -1.4949942535348104e-01 0.0000000000000000e+00  8.8369564470858780e-02 -1.6451620336888231e-01 0.0000000000000000e+00  9.2571741805747385e-02 -1.6521365161297027e-01 0.0000000000000000e+00  8.7970373909715696e-02 -1.8776740736022521e-01 0.0000000000000000e+00  3.6944309103379681e-02 -1.3489075888086371e-01 0.0000000000000000e+00  5.1102941726960872e-02 -1.8627202395293793e-01 0.0000000000000000e+00  3.5032641355138797e-02 -1.7440281338236813e-01 0.0000000000000000e+00  7.4467140212996469e-02 -2.4317311725852483e-01 0.0000000000000000e+00  9.1681134102636008e-02 -2.3255523118102095e-01 0.0000000000000000e+00  6.2049404216254760e-02 -3.1689788179915201e-01 0.0000000000000000e+00  -3.4619608471258595e-03 -2.5123137225673900e-03 0.0000000000000000e+00  -3.5386793515875246e-03 -2.5337861177936061e-03 0.0000000000000000e+00  -3.5569260059349671e-03 -2.5514910449135272e-03 0.0000000000000000e+00  -3.5105433929203999e-03 -2.5496619651766530e-03 0.0000000000000000e+00  -3.4028486368748107e-03 -2.5175253465629477e-03 0.0000000000000000e+00  -3.2398774526060481e-03 -2.4502833860526093e-03 0.0000000000000000e+00  -3.0269571641920361e-03 -2.3463552615953904e-03 0.0000000000000000e+00  -2.7680939359350739e-03 -2.2046092082751191e-03 0.0000000000000000e+00  -2.4652416116905272e-03 -2.0236798427849287e-03 0.0000000000000000e+00  -2.1182216146000995e-03 -1.8003265174735238e-03 0.0000000000000000e+00  -1.7242445085399324e-03 -1.5279582750963550e-03 0.0000000000000000e+00  -1.2764310691690990e-03 -1.1921969450125341e-03 0.0000000000000000e+00  -7.4659240731855835e-04 -7.5876824476809712e-04 0.0000000000000000e+00  -3.3445846725910808e-03 -2.6123886555966731e-03 0.0000000000000000e+00  -3.2971428341705602e-03 -2.7576595595483187e-03 0.0000000000000000e+00  -3.2283803235734461e-03 -2.9993648235436764e-03 0.0000000000000000e+00  -3.1643745810292275e-03 -3.3715819325049619e-03 0.0000000000000000e+00  -3.1188212733716802e-03 -3.8905161601981066e-03 0.0000000000000000e+00  -3.1085912258804129e-03 -4.5677521460777970e-03 0.0000000000000000e+00  -3.1460856708360762e-03 -5.4093692038188028e-03 0.0000000000000000e+00  -3.2384876802934136e-03 -6.4222357274835882e-03 0.0000000000000000e+00  -3.3924582939253399e-03 -7.6143686768111183e-03 0.0000000000000000e+00  -3.6078099959830140e-03 -8.9986078599480438e-03 0.0000000000000000e+00  -3.8814635187430784e-03 -1.0593914128275967e-02 0.0000000000000000e+00  -4.2056968974708104e-03 -1.2421342389032537e-02 0.0000000000000000e+00  -4.5708560023211024e-03 -1.4503771280380686e-02 0.0000000000000000e+00  -4.9684467003133660e-03 -1.6839753385616413e-02 0.0000000000000000e+00  -5.3854584282130849e-03 -1.9376339689665997e-02 0.0000000000000000e+00  -6.1447884278081040e-03 -2.4644816164801919e-02 0.0000000000000000e+00  -6.4021222932957450e-03 -2.7105861266170782e-02 0.0000000000000000e+00  -6.5544479965029163e-03 -2.9346179822027627e-02 0.0000000000000000e+00  -6.6278836224574981e-03 -3.1341749753992308e-02 0.0000000000000000e+00  -6.6797391258142545e-03 -3.3099300795519641e-02 0.0000000000000000e+00  -6.7639625033329162e-03 -3.4622326776536080e-02 0.0000000000000000e+00  -6.9133284846827096e-03 -3.5898761457253674e-02 0.0000000000000000e+00  -7.1265826465784178e-03 -3.6908734989060409e-02 0.0000000000000000e+00  -7.3792321894943806e-03 -3.7638831270802094e-02 0.0000000000000000e+00  -7.6261219957632995e-03 -3.8097062674877051e-02 0.0000000000000000e+00  -7.8238691241241509e-03 -3.8323625958749101e-02 0.0000000000000000e+00  -7.9478831050326694e-03 -3.8387694090950879e-02 0.0000000000000000e+00  -8.0047557184495365e-03 -3.8365486537470614e-02 0.0000000000000000e+00  -8.0184827841309324e-03 -3.8318927983576244e-02 0.0000000000000000e+00  -8.0164388340837819e-03 -3.8273283517017101e-02 0.0000000000000000e+00  -7.9227528238234122e-03 -3.8231647513286143e-02 0.0000000000000000e+00  -7.9524824045319482e-03 -3.8231910820747145e-02 0.0000000000000000e+00  -7.9828196950701008e-03 -3.8232170255433441e-02 0.0000000000000000e+00  -7.8925167332822357e-03 -3.8267085504482649e-02 0.0000000000000000e+00  -7.8833354827734705e-03 -3.8297252521383066e-02 0.0000000000000000e+00  -7.8508726728002774e-03 -3.8324575923478058e-02 0.0000000000000000e+00  -7.7689990316764353e-03 -3.8375584395165412e-02 0.0000000000000000e+00  -7.6107331520533072e-03 -3.8507435519065956e-02 0.0000000000000000e+00  -7.3761745359074548e-03 -3.8800423652010127e-02 0.0000000000000000e+00  -7.0839640750050802e-03 -3.9316913400643277e-02 0.0000000000000000e+00  -6.7801585129152204e-03 -4.0098596363717494e-02 0.0000000000000000e+00  -6.5059962332358074e-03 -4.1149948370995809e-02 0.0000000000000000e+00  -6.2855825855253110e-03 -4.2455090598881799e-02 0.0000000000000000e+00  -6.1136827732773394e-03 -4.3992541502900363e-02 0.0000000000000000e+00  -5.9487404634746702e-03 -4.5744278095679991e-02 0.0000000000000000e+00  -5.7264888035577534e-03 -4.7714697698584815e-02 0.0000000000000000e+00  -5.3718600915383993e-03 -4.9900212828493530e-02 0.0000000000000000e+00  -4.8380152242276028e-03 -5.2285600683497815e-02 0.0000000000000000e+00  -3.2678890255762455e-03 -5.7313876422069365e-02 0.0000000000000000e+00  -2.3418044347687972e-03 -5.9700922767471847e-02 0.0000000000000000e+00  -1.4084977770187786e-03 -6.1866382386351809e-02 0.0000000000000000e+00  -5.2934236660274797e-04 -6.3755105637806272e-02 0.0000000000000000e+00  2.4107389982171341e-04 -6.5359704785635908e-02 0.0000000000000000e+00  8.5991063655179768e-04 -6.6667584075738959e-02 0.0000000000000000e+00  1.3120959213223627e-03 -6.7659189328160424e-02 0.0000000000000000e+00  1.6158592152705855e-03 -6.8314002040538085e-02 0.0000000000000000e+00  1.8085394462814426e-03 -6.8621597321574745e-02 0.0000000000000000e+00  1.9451809891609594e-03 -6.8596218277572368e-02 0.0000000000000000e+00  2.0746249258933873e-03 -6.8287276369152466e-02 0.0000000000000000e+00  2.2230699613823442e-03 -6.7774531791897616e-02 0.0000000000000000e+00  2.3825776645148653e-03 -6.7144701538936799e-02 0.0000000000000000e+00  2.5267448548110596e-03 -6.6469532527993772e-02 0.0000000000000000e+00  2.6254308344715736e-03 -6.5782233482742231e-02 0.0000000000000000e+00  4.2782222956569858e-03 -6.5096865406998383e-02 0.0000000000000000e+00  3.7399902660299111e-03 -6.5095756749129027e-02 0.0000000000000000e+00  3.2012014069177563e-03 -6.5094641091556965e-02 0.0000000000000000e+00  4.8469497560048695e-03 -6.5781631422620931e-02 0.0000000000000000e+00  4.9499248946238790e-03 -6.6453536671435012e-02 0.0000000000000000e+00  5.1398132894493560e-03 -6.7110997882558310e-02 0.0000000000000000e+00  5.4417203764099090e-03 -6.7776592566175201e-02 0.0000000000000000e+00  5.8800147411243011e-03 -6.8504434710849285e-02 0.0000000000000000e+00  6.4495233131064179e-03 -6.9370842176565972e-02 0.0000000000000000e+00  7.1261969404750906e-03 -7.0431559397044458e-02 0.0000000000000000e+00  7.8601785097406150e-03 -7.1719723811122543e-02 0.0000000000000000e+00  8.6101632940932919e-03 -7.3231868143472850e-02 0.0000000000000000e+00  9.3550798452095713e-03 -7.4947435505974644e-02 0.0000000000000000e+00  1.0104453452577999e-02 -7.6844735903854738e-02 0.0000000000000000e+00  1.0901231615306716e-02 -7.8911706219831748e-02 0.0000000000000000e+00  1.1806118657303437e-02 -8.1160229198113276e-02 0.0000000000000000e+00  1.2877817527228504e-02 -8.3598391239157979e-02 0.0000000000000000e+00  1.4135763463083328e-02 -8.6220814372058294e-02 0.0000000000000000e+00  1.6997381743434792e-02 -9.1697542118116898e-02 0.0000000000000000e+00  1.8416721153213141e-02 -9.4275821554044001e-02 0.0000000000000000e+00  1.9734269062944464e-02 -9.6604552918396952e-02 0.0000000000000000e+00  2.0907309652431271e-02 -9.8622797279585409e-02 0.0000000000000000e+00  2.1896661176819716e-02 -1.0031494664426530e-01 0.0000000000000000e+00  2.2679337935431608e-02 -1.0167759356799311e-01 0.0000000000000000e+00  2.3254525988552693e-02 -1.0268887752962153e-01 0.0000000000000000e+00  2.3650472158184201e-02 -1.0332932507843712e-01 0.0000000000000000e+00  2.3918302632676098e-02 -1.0359102720020194e-01 0.0000000000000000e+00  2.4117502688192610e-02 -1.0349312485003381e-01 0.0000000000000000e+00  2.4300245085082911e-02 -1.0308944990613202e-01 0.0000000000000000e+00  2.4496868655211609e-02 -1.0246893410510338e-01 0.0000000000000000e+00  2.4695921925045612e-02 -1.0172250019485059e-01 0.0000000000000000e+00  2.4870199890271429e-02 -1.0092522320841250e-01 0.0000000000000000e+00  2.4987865547912189e-02 -1.0011384055843360e-01 0.0000000000000000e+00  2.6942034581911068e-02 -9.9305029754336513e-02 0.0000000000000000e+00  2.6305664420535356e-02 -9.9303364280525858e-02 0.0000000000000000e+00  2.5668714714425084e-02 -9.9301688069414376e-02 0.0000000000000000e+00  2.7614264067488129e-02 -1.0011535516411507e-01 0.0000000000000000e+00  2.7735070612242015e-02 -1.0091094938605046e-01 0.0000000000000000e+00  2.7955591852082889e-02 -1.0168972690459757e-01 0.0000000000000000e+00  2.8301694484332913e-02 -1.0247428560664429e-01 0.0000000000000000e+00  2.8798381446252744e-02 -1.0331939571052184e-01 0.0000000000000000e+00  2.9440274160567936e-02 -1.0430273478499404e-01 0.0000000000000000e+00  3.0201443817773090e-02 -1.0548018395366057e-01 0.0000000000000000e+00  3.1031992934922030e-02 -1.0688090675992407e-01 0.0000000000000000e+00  3.1895365508748171e-02 -1.0849721970182752e-01 0.0000000000000000e+00  3.2777290592586328e-02 -1.1030602477216592e-01 0.0000000000000000e+00  3.3700545109567270e-02 -1.1228120653894813e-01 0.0000000000000000e+00  3.4724947136505348e-02 -1.1441205997813297e-01 0.0000000000000000e+00  3.5936799755661913e-02 -1.1670421545398778e-01 0.0000000000000000e+00  3.7419832794574608e-02 -1.1917074211252492e-01 0.0000000000000000e+00  3.9216183405623918e-02 -1.2180613113322949e-01 0.0000000000000000e+00  4.3510671098539191e-02 -1.2728065451419157e-01 0.0000000000000000e+00  4.5742001526495574e-02 -1.2983273343991644e-01 0.0000000000000000e+00  4.7868806447848793e-02 -1.3210011002535013e-01 0.0000000000000000e+00  4.9812491500050286e-02 -1.3400572348898773e-01 0.0000000000000000e+00  5.1512790750259711e-02 -1.3552060640642877e-01 0.0000000000000000e+00  5.2938859527332259e-02 -1.3663192530469548e-01 0.0000000000000000e+00  5.4090706478026454e-02 -1.3730958877858998e-01 0.0000000000000000e+00  5.5003007648176963e-02 -1.3753232841253099e-01 0.0000000000000000e+00  5.5734110789727669e-02 -1.3729664628612881e-01 0.0000000000000000e+00  5.6347697009730628e-02 -1.3663217089204566e-01 0.0000000000000000e+00  5.6895642045103813e-02 -1.3560673054620931e-01 0.0000000000000000e+00  5.7403714254872222e-02 -1.3432371884675381e-01 0.0000000000000000e+00  5.7853761236644499e-02 -1.3288571908503910e-01 0.0000000000000000e+00  5.8212729673803865e-02 -1.3137660645069127e-01 0.0000000000000000e+00  5.8445018055261116e-02 -1.2983976496436961e-01 0.0000000000000000e+00  6.2167929005292312e-02 -1.2831425944063984e-01 0.0000000000000000e+00  6.0956378362569161e-02 -1.2830720663836997e-01 0.0000000000000000e+00  5.9744112481459950e-02 -1.2830013800599374e-01 0.0000000000000000e+00  6.3444467052343106e-02 -1.2986307318628870e-01 0.0000000000000000e+00  6.3666120087333772e-02 -1.3138513089091874e-01 0.0000000000000000e+00  6.4058650775472500e-02 -1.3287616092076873e-01 0.0000000000000000e+00  6.4647624424863548e-02 -1.3435185062687488e-01 0.0000000000000000e+00  6.5457812613322036e-02 -1.3586133121160562e-01 0.0000000000000000e+00  6.6483756972883001e-02 -1.3747745299317030e-01 0.0000000000000000e+00  6.7700232244971806e-02 -1.3925094305402191e-01 0.0000000000000000e+00  6.9061004520471481e-02 -1.4120559509172131e-01 0.0000000000000000e+00  7.0537915001838092e-02 -1.4332979797210180e-01 0.0000000000000000e+00  7.2130238961643292e-02 -1.4560104761800313e-01 0.0000000000000000e+00  7.3876831501540521e-02 -1.4800220787902063e-01 0.0000000000000000e+00  7.5850721878618410e-02 -1.5054064678545609e-01 0.0000000000000000e+00  7.8135185827813439e-02 -1.5325491528837867e-01 0.0000000000000000e+00  8.0773346325003492e-02 -1.5620547312240049e-01 0.0000000000000000e+00  8.3711210760197871e-02 -1.5943350949025217e-01 0.0000000000000000e+00  8.9571848514263391e-02 -1.6650931366414357e-01 0.0000000000000000e+00  9.1965785484114701e-02 -1.7001203691911956e-01 0.0000000000000000e+00  9.3849767561409933e-02 -1.7327312697420774e-01 0.0000000000000000e+00  9.5275274036300650e-02 -1.7617990649779852e-01 0.0000000000000000e+00  9.6349500016521442e-02 -1.7872133543280883e-01 0.0000000000000000e+00  9.7165986630624812e-02 -1.8094226602721217e-01 0.0000000000000000e+00  9.7790247318622014e-02 -1.8289399845173060e-01 0.0000000000000000e+00  9.8262102022391482e-02 -1.8462829275782719e-01 0.0000000000000000e+00  9.8602889102428065e-02 -1.8618503555797181e-01 0.0000000000000000e+00  9.8827659242209168e-02 -1.8758840700553697e-01 0.0000000000000000e+00  9.8945985872448169e-02 -1.8885076025368649e-01 0.0000000000000000e+00  9.8969375798668768e-02 -1.8996919552238514e-01 0.0000000000000000e+00  9.8918619424611345e-02 -1.9093486375879146e-01 0.0000000000000000e+00  9.8818113589360740e-02 -1.9173662254827425e-01 0.0000000000000000e+00  9.8721262377280891e-02 -1.9238018778241617e-01 0.0000000000000000e+00  9.4670102134435025e-02 -1.9747687145463355e-01 0.0000000000000000e+00  9.5158062550362188e-02 -1.9681391539443024e-01 0.0000000000000000e+00  9.5581492144949862e-02 -1.9615407803304069e-01 0.0000000000000000e+00  9.5932687620534113e-02 -1.9551852324728328e-01 0.0000000000000000e+00  9.6215680298528408e-02 -1.9492683157168109e-01 0.0000000000000000e+00  9.6441984778154369e-02 -1.9439412593566938e-01 0.0000000000000000e+00  9.6627892373514088e-02 -1.9393261474273654e-01 0.0000000000000000e+00  9.6793210045965278e-02 -1.9355191906716576e-01 0.0000000000000000e+00  9.6960808778850396e-02 -1.9325894751440098e-01 0.0000000000000000e+00  9.7155958590415648e-02 -1.9305683348373204e-01 0.0000000000000000e+00  9.7407061910494738e-02 -1.9294410645623519e-01 0.0000000000000000e+00  9.7741730096799984e-02 -1.9290649997395198e-01 0.0000000000000000e+00  9.8176472296223297e-02 -1.9291720034403559e-01 0.0000000000000000e+00  1.7866628770360427e-01 -4.3101566108355227e-01 0.0000000000000000e+00  1.7844935600044640e-01 -4.2518649990400387e-01 0.0000000000000000e+00  1.7821141470215582e-01 -4.1932566567813545e-01 0.0000000000000000e+00  1.7793638142439974e-01 -4.1339591180469570e-01 0.0000000000000000e+00  1.7760363500268161e-01 -4.0738284772527589e-01 0.0000000000000000e+00  1.7719857723163787e-01 -4.0128761565400806e-01 0.0000000000000000e+00  1.7671212429159447e-01 -3.9511931194184363e-01 0.0000000000000000e+00  1.7613878886726106e-01 -3.8889285150897374e-01 0.0000000000000000e+00  1.7547933941000346e-01 -3.8262599222927790e-01 0.0000000000000000e+00  1.7473763632618342e-01 -3.7633725784430400e-01 0.0000000000000000e+00  1.7392043998992629e-01 -3.7004454389569003e-01 0.0000000000000000e+00  1.7303580887246775e-01 -3.6376518283046444e-01 0.0000000000000000e+00  1.7209257538157938e-01 -3.5751530820671540e-01 0.0000000000000000e+00  1.7109901317414475e-01 -3.5130989298922860e-01 0.0000000000000000e+00  1.7006197501787693e-01 -3.4516332977290398e-01 0.0000000000000000e+00  1.6898643001073896e-01 -3.3909041253231736e-01 0.0000000000000000e+00  1.6787550611209509e-01 -3.3310643180599075e-01 0.0000000000000000e+00  1.6672963869372953e-01 -3.2722988320485225e-01 0.0000000000000000e+00  1.6554756256541461e-01 -3.2148169153136347e-01 0.0000000000000000e+00  1.6432628536492744e-01 -3.1588784449279522e-01 0.0000000000000000e+00  1.6306166837493463e-01 -3.1048175283452151e-01 0.0000000000000000e+00  1.6174883107089136e-01 -3.0530935694634459e-01 0.0000000000000000e+00  1.6038287400269985e-01 -3.0044857812364412e-01 0.0000000000000000e+00  1.5899368757190444e-01 -2.9605249945986967e-01 0.0000000000000000e+00  1.5763226533294256e-01 -2.9202760734145955e-01 0.0000000000000000e+00  1.5629948670332039e-01 -2.8827019552145400e-01 0.0000000000000000e+00  1.5499161407251336e-01 -2.8473732990840400e-01 0.0000000000000000e+00  1.5370775903927872e-01 -2.8139867072555053e-01 0.0000000000000000e+00  1.5244727105886746e-01 -2.7823145193738558e-01 0.0000000000000000e+00  1.5121150680240930e-01 -2.7521727644584149e-01 0.0000000000000000e+00  1.5000243165796964e-01 -2.7233992522586165e-01 0.0000000000000000e+00  1.4882322005096577e-01 -2.6958457988909473e-01 0.0000000000000000e+00  1.4767767786116479e-01 -2.6693699938836407e-01 0.0000000000000000e+00  1.4656981527482368e-01 -2.6438363723345309e-01 0.0000000000000000e+00  1.4550396424047732e-01 -2.6191058426502628e-01 0.0000000000000000e+00  1.4448370128939958e-01 -2.5950426702393392e-01 0.0000000000000000e+00  1.4351216450151133e-01 -2.5715155199207618e-01 0.0000000000000000e+00  1.4259073231