<?xml version="1.0"?>
<VTKFile type="UnstructuredGrid"  version="0.1"  >
<UnstructuredGrid>
<Piece  NumberOfPoints="12853" NumberOfCells="23493">
<Points>
<DataArray  type="Float64"  NumberOfComponents="3"  format="ascii">-3.187178156719634e-14 1.7 0  0 0 0  1.3 3 0  -3.185690647650846e-14 4.300000000000001 0  -3.187178156719634e-14 4.699999999999999 0  1.3 6 0  -3.185690647650846e-14 7.300000000000001 0  -3.187178156719634e-14 7.699999999999999 0  1.3 9 0  -3.185690647650846e-14 10.3 0  -3.187178156719634e-14 10.7 0  1.3 12 0  -3.185690647650846e-14 13.3 0  -3.187178156719634e-14 13.7 0  1.3 15 0  -3.185690647650846e-14 16.3 0  0 18 0  18 18 0  17.99999999999997 16.3 0  17.99999999999997 13.7 0  17.99999999999997 13.3 0  17.99999999999997 10.7 0  17.99999999999997 10.3 0  17.99999999999997 7.7 0  17.99999999999997 7.3 0  17.99999999999997 4.7 0  17.99999999999997 4.3 0  17.99999999999997 1.7 0  18 0 0  4.3 3 0  7.3 3 0  10.3 3 0  4.3 6 0  7.3 6 0  10.3 6 0  13.3 3 0  16.3 3 0  13.3 6 0  16.3 6 0  4.3 9 0  4.3 12 0  7.3 9 0  10.3 9 0  7.3 12 0  10.3 12 0  4.3 15 0  7.3 15 0  10.3 15 0  13.3 9 0  13.3 12 0  16.3 9 0  16.3 12 0  13.3 15 0  16.3 15 0  0 1.578571428571429 0  0 1.457142857142856 0  0 1.335714285714285 0  0 1.214285714285712 0  0 1.092857142857142 0  0 0.9714285714285715 0  0 0.8499999999999979 0  0 0.7285714285714278 0  0 0.6071428571428577 0  0 0.485714285714284 0  0 0.3642857142857139 0  0 0.2428571428571438 0  0 0.1214285714285701 0  0.1274222824284281 1.706259855326144 0  0.2536174186209668 1.7249791354758 0  0.3773700804308007 1.755977563548128 0  0.497488462074617 1.798956607735327 0  0.6128157578737968 1.853502356347138 0  0.7222413029254824 1.919089504006691 0  0.8247112694127393 1.995086410628442 0  0.9192388155425116 2.080761184457488 0  1.004913589371558 2.17528873058726 0  1.080910495993309 2.277758697074517 0  1.146497643652861 2.387184242126203 0  1.201043392264673 2.502511537925383 0  1.244022436451871 2.622629919569199 0  1.275020864524199 2.746382581379033 0  1.293740144673856 2.872577717571571 0  1.293740144673856 3.127422282428428 0  1.2750208645242 3.253617418620966 0  1.244022436451872 3.3773700804308 0  1.201043392264673 3.497488462074616 0  1.146497643652862 3.612815757873796 0  1.08091049599331 3.722241302925481 0  1.00491358937156 3.824711269412738 0  0.9192388155425134 3.91923881554251 0  0.8247112694127412 4.004913589371556 0  0.7222413029254846 4.080910495993308 0  0.6128157578737984 4.146497643652861 0  0.4974884620746181 4.201043392264673 0  0.3773700804308024 4.244022436451871 0  0.2536174186209674 4.275020864524199 0  0.127422282428429 4.293740144673856 0  0 4.6 0  0 4.5 0  0 4.4 0  0.1274222824284281 4.706259855326143 0  0.2536174186209668 4.724979135475801 0  0.3773700804308007 4.755977563548129 0  0.497488462074617 4.798956607735327 0  0.6128157578737968 4.853502356347138 0  0.7222413029254824 4.919089504006691 0  0.8247112694127393 4.995086410628442 0  0.9192388155425116 5.080761184457488 0  1.004913589371558 5.17528873058726 0  1.080910495993309 5.277758697074518 0  1.146497643652861 5.387184242126203 0  1.201043392264673 5.502511537925383 0  1.244022436451871 5.622629919569198 0  1.275020864524199 5.746382581379033 0  1.293740144673856 5.872577717571572 0  1.293740144673856 6.127422282428428 0  1.2750208645242 6.253617418620967 0  1.244022436451872 6.377370080430801 0  1.201043392264673 6.497488462074616 0  1.146497643652862 6.612815757873795 0  1.08091049599331 6.722241302925481 0  1.00491358937156 6.824711269412737 0  0.9192388155425134 6.91923881554251 0  0.8247112694127412 7.004913589371556 0  0.7222413029254846 7.080910495993308 0  0.6128157578737984 7.146497643652861 0  0.4974884620746181 7.201043392264673 0  0.3773700804308024 7.244022436451871 0  0.2536174186209674 7.275020864524199 0  0.127422282428429 7.293740144673856 0  0 7.6 0  0 7.5 0  0 7.4 0  0.1274222824284281 7.706259855326143 0  0.2536174186209668 7.724979135475801 0  0.3773700804308007 7.755977563548129 0  0.497488462074617 7.798956607735327 0  0.6128157578737968 7.853502356347138 0  0.7222413029254824 7.919089504006691 0  0.8247112694127393 7.995086410628442 0  0.9192388155425116 8.080761184457488 0  1.004913589371558 8.17528873058726 0  1.080910495993309 8.277758697074518 0  1.146497643652861 8.387184242126203 0  1.201043392264673 8.502511537925383 0  1.244022436451871 8.622629919569199 0  1.275020864524199 8.746382581379033 0  1.293740144673856 8.872577717571572 0  1.293740144673856 9.127422282428428 0  1.2750208645242 9.253617418620966 0  1.244022436451872 9.377370080430801 0  1.201043392264673 9.497488462074616 0  1.146497643652862 9.612815757873795 0  1.08091049599331 9.722241302925481 0  1.00491358937156 9.824711269412738 0  0.9192388155425134 9.91923881554251 0  0.8247112694127412 10.00491358937156 0  0.7222413029254846 10.08091049599331 0  0.6128157578737984 10.14649764365286 0  0.4974884620746181 10.20104339226467 0  0.3773700804308024 10.24402243645187 0  0.2536174186209674 10.2750208645242 0  0.127422282428429 10.29374014467386 0  0 10.6 0  0 10.5 0  0 10.4 0  0.1274222824284281 10.70625985532614 0  0.2536174186209668 10.7249791354758 0  0.3773700804308007 10.75597756354813 0  0.497488462074617 10.79895660773533 0  0.6128157578737968 10.85350235634714 0  0.7222413029254824 10.91908950400669 0  0.8247112694127393 10.99508641062844 0  0.9192388155425116 11.08076118445749 0  1.004913589371558 11.17528873058726 0  1.080910495993309 11.27775869707452 0  1.146497643652861 11.3871842421262 0  1.201043392264673 11.50251153792538 0  1.244022436451871 11.6226299195692 0  1.275020864524199 11.74638258137903 0  1.293740144673856 11.87257771757157 0  1.293740144673856 12.12742228242843 0  1.2750208645242 12.25361741862097 0  1.244022436451872 12.3773700804308 0  1.201043392264673 12.49748846207462 0  1.146497643652862 12.6128157578738 0  1.08091049599331 12.72224130292548 0  1.00491358937156 12.82471126941274 0  0.9192388155425134 12.91923881554251 0  0.8247112694127412 13.00491358937156 0  0.7222413029254846 13.08091049599331 0  0.6128157578737984 13.14649764365286 0  0.4974884620746181 13.20104339226467 0  0.3773700804308024 13.24402243645187 0  0.2536174186209674 13.2750208645242 0  0.127422282428429 13.29374014467386 0  0 13.6 0  0 13.5 0  0 13.4 0  0.1274222824284281 13.70625985532614 0  0.2536174186209668 13.7249791354758 0  0.3773700804308007 13.75597756354813 0  0.497488462074617 13.79895660773533 0  0.6128157578737968 13.85350235634714 0  0.7222413029254824 13.91908950400669 0  0.8247112694127393 13.99508641062844 0  0.9192388155425116 14.08076118445749 0  1.004913589371558 14.17528873058726 0  1.080910495993309 14.27775869707452 0  1.146497643652861 14.3871842421262 0  1.201043392264673 14.50251153792538 0  1.244022436451871 14.6226299195692 0  1.275020864524199 14.74638258137903 0  1.293740144673856 14.87257771757157 0  1.293740144673856 15.12742228242843 0  1.2750208645242 15.25361741862097 0  1.244022436451872 15.3773700804308 0  1.201043392264673 15.49748846207462 0  1.146497643652862 15.6128157578738 0  1.08091049599331 15.72224130292548 0  1.00491358937156 15.82471126941274 0  0.9192388155425134 15.91923881554251 0  0.8247112694127412 16.00491358937156 0  0.7222413029254846 16.08091049599331 0  0.6128157578737984 16.14649764365286 0  0.4974884620746181 16.20104339226467 0  0.3773700804308024 16.24402243645187 0  0.2536174186209674 16.2750208645242 0  0.127422282428429 16.29374014467385 0  0 17.87857142857143 0  0 17.75714285714286 0  0 17.63571428571429 0  0 17.51428571428571 0  0 17.39285714285714 0  0 17.27142857142857 0  0 17.15 0  0 17.02857142857143 0  0 16.90714285714286 0  0 16.78571428571428 0  0 16.66428571428571 0  0 16.54285714285714 0  0 16.42142857142857 0  17.8705035971223 18 0  17.7410071942446 18 0  17.61151079136691 18 0  17.48201438848921 18 0  17.35251798561151 18 0  17.22302158273381 18 0  17.09352517985612 18 0  16.96402877697842 18 0  16.83453237410072 18 0  16.70503597122302 18 0  16.57553956834532 18 0  16.44604316546762 18 0  16.31654676258993 18 0  16.18705035971223 18 0  16.05755395683453 18 0  15.92805755395683 18 0  15.79856115107913 18 0  15.66906474820144 18 0  15.53956834532374 18 0  15.41007194244604 18 0  15.28057553956834 18 0  15.15107913669064 18 0  15.02158273381295 18 0  14.89208633093525 18 0  14.76258992805755 18 0  14.63309352517985 18 0  14.50359712230215 18 0  14.37410071942446 18 0  14.24460431654676 18 0  14.11510791366906 18 0  13.98561151079136 18 0  13.85611510791366 18 0  13.72661870503597 18 0  13.59712230215827 18 0  13.46762589928057 18 0  13.33812949640287 18 0  13.20863309352517 18 0  13.07913669064748 18 0  12.94964028776977 18 0  12.82014388489208 18 0  12.69064748201438 18 0  12.56115107913668 18 0  12.43165467625898 18 0  12.30215827338128 18 0  12.17266187050359 18 0  12.04316546762589 18 0  11.91366906474819 18 0  11.78417266187049 18 0  11.65467625899279 18 0  11.52517985611509 18 0  11.3956834532374 18 0  11.2661870503597 18 0  11.136690647482 18 0  11.0071942446043 18 0  10.8776978417266 18 0  10.7482014388489 18 0  10.6187050359712 18 0  10.48920863309351 18 0  10.35971223021581 18 0  10.23021582733811 18 0  10.10071942446041 18 0  9.971223021582714 18 0  9.841726618705016 18 0  9.712230215827317 18 0  9.582733812949618 18 0  9.453237410071921 18 0  9.323741007194224 18 0  9.194244604316525 18 0  9.064748201438828 18 0  8.935251798561131 18 0  8.805755395683434 18 0  8.676258992805735 18 0  8.546762589928038 18 0  8.417266187050341 18 0  8.287769784172642 18 0  8.158273381294947 18 0  8.028776978417248 18 0  7.899280575539549 18 0  7.769784172661854 18 0  7.640287769784155 18 0  7.510791366906458 18 0  7.381294964028761 18 0  7.251798561151062 18 0  7.122302158273365 18 0  6.992805755395668 18 0  6.86330935251797 18 0  6.733812949640273 18 0  6.604316546762576 18 0  6.474820143884878 18 0  6.34532374100718 18 0  6.215827338129483 18 0  6.086330935251786 18 0  5.956834532374087 18 0  5.827338129496392 18 0  5.697
[...]
<PointData  Vectors="f_21"> 
<DataArray  type="Float64"  Name="f_21"  NumberOfComponents="3" format="ascii">-1.8676659554492465e-03 -1.3965239511965638e-03 0.0000000000000000e+00  0.0000000000000000e+00 0.0000000000000000e+00 0.0000000000000000e+00  -3.3499169629439001e-03 -1.2278533694266311e-02 0.0000000000000000e+00  -4.9011797484078195e-03 -2.1552872642490260e-02 0.0000000000000000e+00  -4.9177800994630576e-03 -2.1552635606984543e-02 0.0000000000000000e+00  -3.2774793848182153e-03 -3.0554832478350100e-02 0.0000000000000000e+00  -4.2860523587601212e-04 -3.7067857931174751e-02 0.0000000000000000e+00  5.1154098776282769e-04 -3.7068632221948908e-02 0.0000000000000000e+00  5.3939572278775098e-03 -4.9492319551998190e-02 0.0000000000000000e+00  9.7090969289052500e-03 -5.5734804387533469e-02 0.0000000000000000e+00  1.0909586165051291e-02 -5.5736262733809272e-02 0.0000000000000000e+00  1.7458729808957033e-02 -6.9076006226484479e-02 0.0000000000000000e+00  2.5348658433619175e-02 -7.2347815587872052e-02 0.0000000000000000e+00  2.7596852215743154e-02 -7.2353881777623058e-02 0.0000000000000000e+00  3.8765178569895774e-02 -8.9908499535795869e-02 0.0000000000000000e+00  4.4598152194193913e-02 -1.0618068503991671e-01 0.0000000000000000e+00  4.1845721942783638e-02 -1.0899042559005634e-01 0.0000000000000000e+00  8.6921875448189134e-02 -2.3094868938761623e-01 0.0000000000000000e+00  4.7265606418589276e-02 -2.2757648407259534e-01 0.0000000000000000e+00  3.8872663737395542e-02 -1.5063333397196677e-01 0.0000000000000000e+00  3.8487596416445842e-02 -1.5063335215045762e-01 0.0000000000000000e+00  3.1045928496787133e-02 -1.2216961066450018e-01 0.0000000000000000e+00  2.8288972373896250e-02 -1.2216084992227703e-01 0.0000000000000000e+00  2.0054653413114618e-02 -7.9389026616073569e-02 0.0000000000000000e+00  1.9031261653338689e-02 -7.9388334986514444e-02 0.0000000000000000e+00  1.2995874464888518e-02 -4.5217648781420650e-02 0.0000000000000000e+00  1.1608145470729856e-02 -4.5215794603750734e-02 0.0000000000000000e+00  3.1469179853334086e-03 -2.4687355439187886e-03 0.0000000000000000e+00  0.0000000000000000e+00 0.0000000000000000e+00 0.0000000000000000e+00  -1.9414844432923692e-03 -1.2383886033246532e-02 0.0000000000000000e+00  -9.0466420946410883e-04 -1.2514848255228365e-02 0.0000000000000000e+00  -5.5687817151984750e-04 -1.3926547837154506e-02 0.0000000000000000e+00  3.0147996111793519e-04 -3.1615178506569738e-02 0.0000000000000000e+00  2.1964910430235752e-03 -3.2585598739447309e-02 0.0000000000000000e+00  4.7747766436504469e-03 -3.6808513842370515e-02 0.0000000000000000e+00  5.5871733338775645e-04 -1.6802076529918920e-02 0.0000000000000000e+00  2.4727789707792410e-03 -2.1541461759692584e-02 0.0000000000000000e+00  6.4289540950657467e-03 -4.5414803018750803e-02 0.0000000000000000e+00  1.2334847517959381e-02 -5.7458331407031014e-02 0.0000000000000000e+00  7.7737836505422436e-03 -5.1259439046537687e-02 0.0000000000000000e+00  2.1455531562600674e-02 -7.0805260258736097e-02 0.0000000000000000e+00  1.0839502985397261e-02 -5.2590035346537986e-02 0.0000000000000000e+00  1.2154098763015098e-02 -5.9621094939001758e-02 0.0000000000000000e+00  2.2307089019414864e-02 -7.2142105653038968e-02 0.0000000000000000e+00  2.4984053723228532e-02 -8.1845594618085549e-02 0.0000000000000000e+00  4.0064677016545772e-02 -9.0282700152126166e-02 0.0000000000000000e+00  4.2038832772509693e-02 -9.0512306381759486e-02 0.0000000000000000e+00  3.9990792011408406e-02 -1.0281491924448981e-01 0.0000000000000000e+00  1.6422369592045891e-02 -7.3368158976293382e-02 0.0000000000000000e+00  2.3673097812776947e-02 -1.0122286002765458e-01 0.0000000000000000e+00  1.7738243669397264e-02 -9.3379203209679421e-02 0.0000000000000000e+00  3.3410721790233175e-02 -1.3026829625961511e-01 0.0000000000000000e+00  4.1466797686700085e-02 -1.2635767478658508e-01 0.0000000000000000e+00  2.8994310703224817e-02 -1.6983987517661939e-01 0.0000000000000000e+00  -1.9250796784966921e-03 -1.3997543018291244e-03 0.0000000000000000e+00  -1.9669699453669356e-03 -1.4116259040514688e-03 0.0000000000000000e+00  -1.9762989820677180e-03 -1.4212382909906012e-03 0.0000000000000000e+00  -1.9497485464253393e-03 -1.4198320530065815e-03 0.0000000000000000e+00  -1.8892410376451878e-03 -1.4014559865080385e-03 0.0000000000000000e+00  -1.7981792492466108e-03 -1.3634967476096678e-03 0.0000000000000000e+00  -1.6795499223846238e-03 -1.3051165550320967e-03 0.0000000000000000e+00  -1.5355895999071892e-03 -1.2257310876655030e-03 0.0000000000000000e+00  -1.3673845067182122e-03 -1.1246200886022451e-03 0.0000000000000000e+00  -1.1748272076949407e-03 -1.0000211498403058e-03 0.0000000000000000e+00  -9.5635042986014272e-04 -8.4831248704457692e-04 0.0000000000000000e+00  -7.0810069668423951e-04 -6.6155743433566152e-04 0.0000000000000000e+00  -4.1438929917230681e-04 -4.2081177407218351e-04 0.0000000000000000e+00  -1.8604703101687159e-03 -1.4547803981834802e-03 0.0000000000000000e+00  -1.8342619342044950e-03 -1.5351352478377327e-03 0.0000000000000000e+00  -1.7964853958710733e-03 -1.6692628678944917e-03 0.0000000000000000e+00  -1.7617260154624674e-03 -1.8760125824556378e-03 0.0000000000000000e+00  -1.7376739984848941e-03 -2.1643214769621259e-03 0.0000000000000000e+00  -1.7338024593055220e-03 -2.5405880802745933e-03 0.0000000000000000e+00  -1.7571245208681759e-03 -3.0081986494263687e-03 0.0000000000000000e+00  -1.8118152341616543e-03 -3.5710462482477761e-03 0.0000000000000000e+00  -1.9018215623537464e-03 -4.2337396629557348e-03 0.0000000000000000e+00  -2.0274065604562251e-03 -5.0036567879066830e-03 0.0000000000000000e+00  -2.1874056551863834e-03 -5.8916848407432479e-03 0.0000000000000000e+00  -2.3783020779424564e-03 -6.9099420828312667e-03 0.0000000000000000e+00  -2.5957223182752234e-03 -8.0716128364422650e-03 0.0000000000000000e+00  -2.8359766007532150e-03 -9.3762459472605513e-03 0.0000000000000000e+00  -3.0925721362196298e-03 -1.0794413417314519e-02 0.0000000000000000e+00  -3.5793929461642050e-03 -1.3742536314236976e-02 0.0000000000000000e+00  -3.7589896463019958e-03 -1.5119908105303519e-02 0.0000000000000000e+00  -3.8798963524800589e-03 -1.6373556472967690e-02 0.0000000000000000e+00  -3.9546287397733354e-03 -1.7490588512013631e-02 0.0000000000000000e+00  -4.0138202374513264e-03 -1.8475639615183507e-02 0.0000000000000000e+00  -4.0870739726520354e-03 -1.9331671967117919e-02 0.0000000000000000e+00  -4.1928458405958123e-03 -2.0052931520379319e-02 0.0000000000000000e+00  -4.3310339897441605e-03 -2.0628940817209344e-02 0.0000000000000000e+00  -4.4885755773405017e-03 -2.1052388495359405e-02 0.0000000000000000e+00  -4.6408172731014601e-03 -2.1327426492460413e-02 0.0000000000000000e+00  -4.7638030152422038e-03 -2.1475843921052108e-02 0.0000000000000000e+00  -4.8437930651613840e-03 -2.1535496921025216e-02 0.0000000000000000e+00  -4.8842598778239960e-03 -2.1548270221938105e-02 0.0000000000000000e+00  -4.8983379442393768e-03 -2.1548238920080485e-02 0.0000000000000000e+00  -4.9011129186488584e-03 -2.1549192241522935e-02 0.0000000000000000e+00  -4.9128909146215344e-03 -2.1552604847219190e-02 0.0000000000000000e+00  -4.9085721186294127e-03 -2.1552755648600506e-02 0.0000000000000000e+00  -4.9045868371170413e-03 -2.1552904426256809e-02 0.0000000000000000e+00  -4.9182262551607427e-03 -2.1545743560157829e-02 0.0000000000000000e+00  -4.9170194136720097e-03 -2.1536221394355941e-02 0.0000000000000000e+00  -4.9054491583372462e-03 -2.1525652459913419e-02 0.0000000000000000e+00  -4.8689766860135894e-03 -2.1529022448950674e-02 0.0000000000000000e+00  -4.7925708673928844e-03 -2.1578297951573136e-02 0.0000000000000000e+00  -4.6762197792053666e-03 -2.1718296651270889e-02 0.0000000000000000e+00  -4.5302111938082066e-03 -2.1983929388699551e-02 0.0000000000000000e+00  -4.3801696890053430e-03 -2.2398763769107918e-02 0.0000000000000000e+00  -4.2492690501232267e-03 -2.2965860042482682e-02 0.0000000000000000e+00  -4.1515029698384288e-03 -2.3677144400876357e-02 0.0000000000000000e+00  -4.0850735391948553e-03 -2.4521589524060049e-02 0.0000000000000000e+00  -4.0287785612331834e-03 -2.5490102011913617e-02 0.0000000000000000e+00  -3.9497415797753290e-03 -2.6586072976950564e-02 0.0000000000000000e+00  -3.8098814137913885e-03 -2.7807457230566813e-02 0.0000000000000000e+00  -3.5862024888222107e-03 -2.9145154863436166e-02 0.0000000000000000e+00  -2.9023058434560914e-03 -3.1969249366898746e-02 0.0000000000000000e+00  -2.4909960716507310e-03 -3.3310560356066873e-02 0.0000000000000000e+00  -2.0724616062591373e-03 -3.4529597120488767e-02 0.0000000000000000e+00  -1.6766669434589727e-03 -3.5598153895488850e-02 0.0000000000000000e+00  -1.3323475451163884e-03 -3.6514012831669239e-02 0.0000000000000000e+00  -1.0630991038672066e-03 -3.7272044264569676e-02 0.0000000000000000e+00  -8.7805796245726451e-04 -3.7862571122749822e-02 0.0000000000000000e+00  -7.6825059519233384e-04 -3.8274587032229059e-02 0.0000000000000000e+00  -7.1380070635229578e-04 -3.8501985123568734e-02 0.0000000000000000e+00  -6.8471344277529602e-04 -3.8551617880784435e-02 0.0000000000000000e+00  -6.5385055998887882e-04 -3.8449508171226852e-02 0.0000000000000000e+00  -6.0620981104017764e-04 -3.8238533930701792e-02 0.0000000000000000e+00  -5.4556316184505385e-04 -3.7965694336038761e-02 0.0000000000000000e+00  -4.8598618193569307e-04 -3.7669941070087636e-02 0.0000000000000000e+00  -4.4385667293722663e-04 -3.7368988572976582e-02 0.0000000000000000e+00  2.7724097371121663e-04 -3.7068331886610968e-02 0.0000000000000000e+00  4.2356829042182464e-05 -3.7068248865464788e-02 0.0000000000000000e+00  -1.9282836020157341e-04 -3.7068162940777201e-02 0.0000000000000000e+00  5.2573042795416762e-04 -3.7366482936814611e-02 0.0000000000000000e+00  5.7159533250316632e-04 -3.7658753492652249e-02 0.0000000000000000e+00  6.5782044628397455e-04 -3.7944522245037533e-02 0.0000000000000000e+00  7.9848532717729452e-04 -3.8237047092773951e-02 0.0000000000000000e+00  1.0073568383914397e-03 -3.8567017388469120e-02 0.0000000000000000e+00  1.2818831066049566e-03 -3.8977472737437666e-02 0.0000000000000000e+00  1.6089968511864084e-03 -3.9500139390133658e-02 0.0000000000000000e+00  1.9610507389085556e-03 -4.0154393528104203e-02 0.0000000000000000e+00  2.3146801288189893e-03 -4.0939367178824300e-02 0.0000000000000000e+00  2.6571884490619742e-03 -4.1844641527788141e-02 0.0000000000000000e+00  2.9922377909542761e-03 -4.2858947092419733e-02 0.0000000000000000e+00  3.3415150397223307e-03 -4.3975807483667563e-02 0.0000000000000000e+00  3.7360940722462842e-03 -4.5201752342836125e-02 0.0000000000000000e+00  4.2067212123432316e-03 -4.6539294483653390e-02 0.0000000000000000e+00  4.7649823140507872e-03 -4.7983255052408399e-02 0.0000000000000000e+00  6.0561321183157648e-03 -5.0999004558452965e-02 0.0000000000000000e+00  6.7087414128425438e-03 -5.2417531331773778e-02 0.0000000000000000e+00  7.3227635687207002e-03 -5.3700005388507777e-02 0.0000000000000000e+00  7.8750764686139462e-03 -5.4815888422541016e-02 0.0000000000000000e+00  8.3420341084660087e-03 -5.5758581944547213e-02 0.0000000000000000e+00  8.7080434489558937e-03 -5.6527291557420443e-02 0.0000000000000000e+00  8.9698182149135029e-03 -5.7110861092124945e-02 0.0000000000000000e+00  9.1404825884251507e-03 -5.7498603908494220e-02 0.0000000000000000e+00  9.2463722468704400e-03 -5.7685535424048064e-02 0.0000000000000000e+00  9.3192309418686312e-03 -5.7680963014667512e-02 0.0000000000000000e+00  9.3875056615263242e-03 -5.7513030867039718e-02 0.0000000000000000e+00  9.4681912703508155e-03 -5.7229296808176185e-02 0.0000000000000000e+00  9.5555348287993426e-03 -5.6878795726627435e-02 0.0000000000000000e+00  9.6350561073619903e-03 -5.6502116459300901e-02 0.0000000000000000e+00  9.6895463199854343e-03 -5.6118908474933990e-02 0.0000000000000000e+00  1.0610223870608107e-02 -5.5735788942722561e-02 0.0000000000000000e+00  1.0310259210635678e-02 -5.5735539101193464e-02 0.0000000000000000e+00  1.0009980676500602e-02 -5.5735284464271569e-02 0.0000000000000000e+00  1.0927624820509844e-02 -5.6117008021063230e-02 0.0000000000000000e+00  1.0985529084203506e-02 -5.6491322709217980e-02 0.0000000000000000e+00  1.1092096155102052e-02 -5.6857520145749019e-02 0.0000000000000000e+00  1.1261706034852900e-02 -5.7228580687865793e-02 0.0000000000000000e+00  1.1508388908117206e-02 -5.7635159307012240e-02 0.0000000000000000e+00  1.1829552482174616e-02 -5.8120662347645166e-02 0.0000000000000000e+00  1.2211214094773154e-02 -5.8716731690151729e-02 0.0000000000000000e+00  1.2625780722883973e-02 -5.9440632322642011e-02 0.0000000000000000e+00  1.3052351891010247e-02 -6.0289480348015928e-02 0.0000000000000000e+00  1.3481466528413111e-02 -6.1251937221392293e-02 0.0000000000000000e+00  1.3923029239624135e-02 -6.2314794169432156e-02 0.0000000000000000e+00  1.4406160117007460e-02 -6.3473158429971241e-02 0.0000000000000000e+00  1.4973099962163316e-02 -6.4730548844299893e-02 0.0000000000000000e+00  1.5664201353481882e-02 -6.6092590357360398e-02 0.0000000000000000e+00  1.6499066009893044e-02 -6.7554100981063930e-02 0.0000000000000000e+00  1.8490341908163604e-02 -7.0589827174479342e-02 0.0000000000000000e+00  1.9527339553371596e-02 -7.2004175579372151e-02 0.0000000000000000e+00  2.0519675249583449e-02 -7.3264539036828433e-02 0.0000000000000000e+00  2.1429239513656027e-02 -7.4333403079277535e-02 0.0000000000000000e+00  2.2223720456549464e-02 -7.5198580144162530e-02 0.0000000000000000e+00  2.2884532853002040e-02 -7.5855242060541103e-02 0.0000000000000000e+00  2.3409234317006280e-02 -7.6288532776739845e-02 0.0000000000000000e+00  2.3814349458439334e-02 -7.6486927933188953e-02 0.0000000000000000e+00  2.4129955460552421e-02 -7.6447509089369828e-02 0.0000000000000000e+00  2.4390040119578328e-02 -7.6184540157843608e-02 0.0000000000000000e+00  2.4623094250554960e-02 -7.5732799599161543e-02 0.0000000000000000e+00  2.4844075054387953e-02 -7.5146678476752479e-02 0.0000000000000000e+00  2.5044156915744596e-02 -7.4480681069457821e-02 0.0000000000000000e+00  2.5206184292488783e-02 -7.3779455931684668e-02 0.0000000000000000e+00  2.5311239241504194e-02 -7.3065676676634675e-02 0.0000000000000000e+00  2.7035630512844352e-02 -7.2352272930921405e-02 0.0000000000000000e+00  2.6473773426691403e-02 -7.2350857227657092e-02 0.0000000000000000e+00  2.5911534699287274e-02 -7.2349435479205568e-02 0.0000000000000000e+00  2.7629825017490818e-02 -7.3068373593548619e-02 0.0000000000000000e+00  2.7735251165591647e-02 -7.3773209181491009e-02 0.0000000000000000e+00  2.7921692128367499e-02 -7.4463226565085264e-02 0.0000000000000000e+00  2.8203443846120852e-02 -7.5148168619244185e-02 0.0000000000000000e+00  2.8594572239391595e-02 -7.5856035685234191e-02 0.0000000000000000e+00  2.9092708469533012e-02 -7.6627983909242997e-02 0.0000000000000000e+00  2.9684510448188633e-02 -7.7493275311717166e-02 0.0000000000000000e+00  3.0344532751406934e-02 -7.8466703330704490e-02 0.0000000000000000e+00  3.1056363712361864e-02 -7.9543568310643284e-02 0.0000000000000000e+00  3.1817643073353871e-02 -8.0712794397249155e-02 0.0000000000000000e+00  3.2646813551667063e-02 -8.1965306359315038e-02 0.0000000000000000e+00  3.3580516562531061e-02 -8.3304441409584554e-02 0.0000000000000000e+00  3.4661430095714769e-02 -8.4748765291341260e-02 0.0000000000000000e+00  3.5913382786475087e-02 -8.6325969587795467e-02 0.0000000000000000e+00  3.7313457637450378e-02 -8.8053329109812728e-02 0.0000000000000000e+00  4.0132636889427975e-02 -9.1825217283194316e-02 0.0000000000000000e+00  4.1300109840074269e-02 -9.3688763900769842e-02 0.0000000000000000e+00  4.2228766866563065e-02 -9.5425391865845574e-02 0.0000000000000000e+00  4.2938451414706438e-02 -9.6978510551659569e-02 0.0000000000000000e+00  4.3477221495523258e-02 -9.8342712178876190e-02 0.0000000000000000e+00  4.3888314979915133e-02 -9.9541030472444114e-02 0.0000000000000000e+00  4.4202476240764746e-02 -1.0059985657239262e-01 0.0000000000000000e+00  4.4438632736577506e-02 -1.0154586310604252e-01 0.0000000000000000e+00  4.4606976453477880e-02 -1.0239954801544339e-01 0.0000000000000000e+00  4.4714926812801321e-02 -1.0317320973542005e-01 0.0000000000000000e+00  4.4767407088500362e-02 -1.0387290472843463e-01 0.0000000000000000e+00  4.4770526670019496e-02 -1.0449657357042337e-01 0.0000000000000000e+00  4.4735531744331945e-02 -1.0503899660322102e-01 0.0000000000000000e+00  4.4675697961646076e-02 -1.0549376630693155e-01 0.0000000000000000e+00  4.4619915045851423e-02 -1.0586358446227606e-01 0.0000000000000000e+00  4.2149380227888687e-02 -1.0863994314187543e-01 0.0000000000000000e+00  4.2433791819794862e-02 -1.0828206990199477e-01 0.0000000000000000e+00  4.2683967605713587e-02 -1.0792581169664960e-01 0.0000000000000000e+00  4.2895463137224664e-02 -1.0758257708183463e-01 0.0000000000000000e+00  4.3070302005862635e-02 -1.0726293435174072e-01 0.0000000000000000e+00  4.3214597651595979e-02 -1.0697506004679287e-01 0.0000000000000000e+00  4.3337068920251402e-02 -1.0672556115727243e-01 0.0000000000000000e+00  4.3448348676549856e-02 -1.0651965150903302e-01 0.0000000000000000e+00  4.3560734442369117e-02 -1.0636108941111518e-01 0.0000000000000000e+00  4.3687832616111102e-02 -1.0625159818603261e-01 0.0000000000000000e+00  4.3844955934648912e-02 -1.0619044043922865e-01 0.0000000000000000e+00  4.4047033623255148e-02 -1.0616998414676418e-01 0.0000000000000000e+00  4.4303064872933492e-02 -1.0617580966874016e-01 0.0000000000000000e+00  8.6787272472445581e-02 -2.2806668619442266e-01 0.0000000000000000e+00  8.6643021885415950e-02 -2.2519424028018889e-01 0.0000000000000000e+00  8.6487821279516860e-02 -2.2229642652861725e-01 0.0000000000000000e+00  8.6313643257443035e-02 -2.1935694614840853e-01 0.0000000000000000e+00  8.6110291786706247e-02 -2.1636970179470202e-01 0.0000000000000000e+00  8.5870858148988816e-02 -2.1333587605951990e-01 0.0000000000000000e+00  8.5591292902914326e-02 -2.1026041940707710e-01 0.0000000000000000e+00  8.5269481281889048e-02 -2.0715101353334303e-01 0.0000000000000000e+00  8.4906485975047408e-02 -2.0401658427132330e-01 0.0000000000000000e+00  8.4504900930907678e-02 -2.0086627131913620e-01 0.0000000000000000e+00  8.4068706418682318e-02 -1.9770876135716700e-01 0.0000000000000000e+00  8.3602416498673074e-02 -1.9455231964798361e-01 0.0000000000000000e+00  8.3110768347459021e-02 -1.9140452878318875e-01 0.0000000000000000e+00  8.2598010668692823e-02 -1.8827235467371869e-01 0.0000000000000000e+00  8.2067471664657471e-02 -1.8516250897299313e-01 0.0000000000000000e+00  8.1521240003346929e-02 -1.8208199193342778e-01 0.0000000000000000e+00  8.0960425430874228e-02 -1.7903824634779747e-01 0.0000000000000000e+00  8.0384336209058382e-02 -1.7604057633121817e-01 0.0000000000000000e+00  7.9791477592638022e-02 -1.7309980252566512e-01 0.0000000000000000e+00  7.9179274446031483e-02 -1.7022973332142427e-01 0.0000000000000000e+00  7.8544519014640629e-02 -1.6744841943954650e-01 0.0000000000000000e+00  7.7883615493017075e-02 -1.6478093966645735e-01 0.0000000000000000e+00  7.7192989745837229e-02 -1.6226999469390968e-01 0.0000000000000000e+00  7.6488305029545151e-02 -1.5999925638887183e-01 0.0000000000000000e+00  7.5796866678940200e-02 -1.5791874061248762e-01 0.0000000000000000e+00  7.5118713461662184e-02 -1.5597303991524311e-01 0.0000000000000000e+00  7.4451437785968341e-02 -1.5413981279869959e-01 0.0000000000000000e+00  7.3794338714285992e-02 -1.5240361405495492e-01 0.0000000000000000e+00  7.3147018297289201e-02 -1.5075311002378347e-01 0.0000000000000000e+00  7.2510237237602207e-02 -1.4917926209392790e-01 0.0000000000000000e+00  7.1885231212056158e-02 -1.4767414426242026e-01 0.0000000000000000e+00  7.1273938080818208e-02 -1.4623047104553902e-01 0.0000000000000000e+00  7.0678720462063027e-02 -1.4484115849718557e-01 0.0000000000000000e+00  7.0101996196161767e-02 -1.4349934453690633e-01 0.0000000000000000e+00  6.9546412693227658e-02 -1.4219787365190534e-01 0.0000000000000000e+00  6.9014186461890684e-02 -1.4092965790468273e-01 0.0000000000000000e+00  6.8507196596337055e-02 -1.3968775349801393e-01 0.0000000000000000e+00 