<?xml version="1.0"?>
<VTKFile type="UnstructuredGrid"  version="0.1"  >
<UnstructuredGrid>
<Piece  NumberOfPoints="12853" NumberOfCells="23493">
<Points>
<DataArray  type="Float64"  NumberOfComponents="3"  format="ascii">-3.187178156719634e-14 1.7 0  0 0 0  1.3 3 0  -3.185690647650846e-14 4.300000000000001 0  -3.187178156719634e-14 4.699999999999999 0  1.3 6 0  -3.185690647650846e-14 7.300000000000001 0  -3.187178156719634e-14 7.699999999999999 0  1.3 9 0  -3.185690647650846e-14 10.3 0  -3.187178156719634e-14 10.7 0  1.3 12 0  -3.185690647650846e-14 13.3 0  -3.187178156719634e-14 13.7 0  1.3 15 0  -3.185690647650846e-14 16.3 0  0 18 0  18 18 0  17.99999999999997 16.3 0  17.99999999999997 13.7 0  17.99999999999997 13.3 0  17.99999999999997 10.7 0  17.99999999999997 10.3 0  17.99999999999997 7.7 0  17.99999999999997 7.3 0  17.99999999999997 4.7 0  17.99999999999997 4.3 0  17.99999999999997 1.7 0  18 0 0  4.3 3 0  7.3 3 0  10.3 3 0  4.3 6 0  7.3 6 0  10.3 6 0  13.3 3 0  16.3 3 0  13.3 6 0  16.3 6 0  4.3 9 0  4.3 12 0  7.3 9 0  10.3 9 0  7.3 12 0  10.3 12 0  4.3 15 0  7.3 15 0  10.3 15 0  13.3 9 0  13.3 12 0  16.3 9 0  16.3 12 0  13.3 15 0  16.3 15 0  0 1.578571428571429 0  0 1.457142857142856 0  0 1.335714285714285 0  0 1.214285714285712 0  0 1.092857142857142 0  0 0.9714285714285715 0  0 0.8499999999999979 0  0 0.7285714285714278 0  0 0.6071428571428577 0  0 0.485714285714284 0  0 0.3642857142857139 0  0 0.2428571428571438 0  0 0.1214285714285701 0  0.1274222824284281 1.706259855326144 0  0.2536174186209668 1.7249791354758 0  0.3773700804308007 1.755977563548128 0  0.497488462074617 1.798956607735327 0  0.6128157578737968 1.853502356347138 0  0.7222413029254824 1.919089504006691 0  0.8247112694127393 1.995086410628442 0  0.9192388155425116 2.080761184457488 0  1.004913589371558 2.17528873058726 0  1.080910495993309 2.277758697074517 0  1.146497643652861 2.387184242126203 0  1.201043392264673 2.502511537925383 0  1.244022436451871 2.622629919569199 0  1.275020864524199 2.746382581379033 0  1.293740144673856 2.872577717571571 0  1.293740144673856 3.127422282428428 0  1.2750208645242 3.253617418620966 0  1.244022436451872 3.3773700804308 0  1.201043392264673 3.497488462074616 0  1.146497643652862 3.612815757873796 0  1.08091049599331 3.722241302925481 0  1.00491358937156 3.824711269412738 0  0.9192388155425134 3.91923881554251 0  0.8247112694127412 4.004913589371556 0  0.7222413029254846 4.080910495993308 0  0.6128157578737984 4.146497643652861 0  0.4974884620746181 4.201043392264673 0  0.3773700804308024 4.244022436451871 0  0.2536174186209674 4.275020864524199 0  0.127422282428429 4.293740144673856 0  0 4.6 0  0 4.5 0  0 4.4 0  0.1274222824284281 4.706259855326143 0  0.2536174186209668 4.724979135475801 0  0.3773700804308007 4.755977563548129 0  0.497488462074617 4.798956607735327 0  0.6128157578737968 4.853502356347138 0  0.7222413029254824 4.919089504006691 0  0.8247112694127393 4.995086410628442 0  0.9192388155425116 5.080761184457488 0  1.004913589371558 5.17528873058726 0  1.080910495993309 5.277758697074518 0  1.146497643652861 5.387184242126203 0  1.201043392264673 5.502511537925383 0  1.244022436451871 5.622629919569198 0  1.275020864524199 5.746382581379033 0  1.293740144673856 5.872577717571572 0  1.293740144673856 6.127422282428428 0  1.2750208645242 6.253617418620967 0  1.244022436451872 6.377370080430801 0  1.201043392264673 6.497488462074616 0  1.146497643652862 6.612815757873795 0  1.08091049599331 6.722241302925481 0  1.00491358937156 6.824711269412737 0  0.9192388155425134 6.91923881554251 0  0.8247112694127412 7.004913589371556 0  0.7222413029254846 7.080910495993308 0  0.6128157578737984 7.146497643652861 0  0.4974884620746181 7.201043392264673 0  0.3773700804308024 7.244022436451871 0  0.2536174186209674 7.275020864524199 0  0.127422282428429 7.293740144673856 0  0 7.6 0  0 7.5 0  0 7.4 0  0.1274222824284281 7.706259855326143 0  0.2536174186209668 7.724979135475801 0  0.3773700804308007 7.755977563548129 0  0.497488462074617 7.798956607735327 0  0.6128157578737968 7.853502356347138 0  0.7222413029254824 7.919089504006691 0  0.8247112694127393 7.995086410628442 0  0.9192388155425116 8.080761184457488 0  1.004913589371558 8.17528873058726 0  1.080910495993309 8.277758697074518 0  1.146497643652861 8.387184242126203 0  1.201043392264673 8.502511537925383 0  1.244022436451871 8.622629919569199 0  1.275020864524199 8.746382581379033 0  1.293740144673856 8.872577717571572 0  1.293740144673856 9.127422282428428 0  1.2750208645242 9.253617418620966 0  1.244022436451872 9.377370080430801 0  1.201043392264673 9.497488462074616 0  1.146497643652862 9.612815757873795 0  1.08091049599331 9.722241302925481 0  1.00491358937156 9.824711269412738 0  0.9192388155425134 9.91923881554251 0  0.8247112694127412 10.00491358937156 0  0.7222413029254846 10.08091049599331 0  0.6128157578737984 10.14649764365286 0  0.4974884620746181 10.20104339226467 0  0.3773700804308024 10.24402243645187 0  0.2536174186209674 10.2750208645242 0  0.127422282428429 10.29374014467386 0  0 10.6 0  0 10.5 0  0 10.4 0  0.1274222824284281 10.70625985532614 0  0.2536174186209668 10.7249791354758 0  0.3773700804308007 10.75597756354813 0  0.497488462074617 10.79895660773533 0  0.6128157578737968 10.85350235634714 0  0.7222413029254824 10.91908950400669 0  0.8247112694127393 10.99508641062844 0  0.9192388155425116 11.08076118445749 0  1.004913589371558 11.17528873058726 0  1.080910495993309 11.27775869707452 0  1.146497643652861 11.3871842421262 0  1.201043392264673 11.50251153792538 0  1.244022436451871 11.6226299195692 0  1.275020864524199 11.74638258137903 0  1.293740144673856 11.87257771757157 0  1.293740144673856 12.12742228242843 0  1.2750208645242 12.25361741862097 0  1.244022436451872 12.3773700804308 0  1.201043392264673 12.49748846207462 0  1.146497643652862 12.6128157578738 0  1.08091049599331 12.72224130292548 0  1.00491358937156 12.82471126941274 0  0.9192388155425134 12.91923881554251 0  0.8247112694127412 13.00491358937156 0  0.7222413029254846 13.08091049599331 0  0.6128157578737984 13.14649764365286 0  0.4974884620746181 13.20104339226467 0  0.3773700804308024 13.24402243645187 0  0.2536174186209674 13.2750208645242 0  0.127422282428429 13.29374014467386 0  0 13.6 0  0 13.5 0  0 13.4 0  0.1274222824284281 13.70625985532614 0  0.2536174186209668 13.7249791354758 0  0.3773700804308007 13.75597756354813 0  0.497488462074617 13.79895660773533 0  0.6128157578737968 13.85350235634714 0  0.7222413029254824 13.91908950400669 0  0.8247112694127393 13.99508641062844 0  0.9192388155425116 14.08076118445749 0  1.004913589371558 14.17528873058726 0  1.080910495993309 14.27775869707452 0  1.146497643652861 14.3871842421262 0  1.201043392264673 14.50251153792538 0  1.244022436451871 14.6226299195692 0  1.275020864524199 14.74638258137903 0  1.293740144673856 14.87257771757157 0  1.293740144673856 15.12742228242843 0  1.2750208645242 15.25361741862097 0  1.244022436451872 15.3773700804308 0  1.201043392264673 15.49748846207462 0  1.146497643652862 15.6128157578738 0  1.08091049599331 15.72224130292548 0  1.00491358937156 15.82471126941274 0  0.9192388155425134 15.91923881554251 0  0.8247112694127412 16.00491358937156 0  0.7222413029254846 16.08091049599331 0  0.6128157578737984 16.14649764365286 0  0.4974884620746181 16.20104339226467 0  0.3773700804308024 16.24402243645187 0  0.2536174186209674 16.2750208645242 0  0.127422282428429 16.29374014467385 0  0 17.87857142857143 0  0 17.75714285714286 0  0 17.63571428571429 0  0 17.51428571428571 0  0 17.39285714285714 0  0 17.27142857142857 0  0 17.15 0  0 17.02857142857143 0  0 16.90714285714286 0  0 16.78571428571428 0  0 16.66428571428571 0  0 16.54285714285714 0  0 16.42142857142857 0  17.8705035971223 18 0  17.7410071942446 18 0  17.61151079136691 18 0  17.48201438848921 18 0  17.35251798561151 18 0  17.22302158273381 18 0  17.09352517985612 18 0  16.96402877697842 18 0  16.83453237410072 18 0  16.70503597122302 18 0  16.57553956834532 18 0  16.44604316546762 18 0  16.31654676258993 18 0  16.18705035971223 18 0  16.05755395683453 18 0  15.92805755395683 18 0  15.79856115107913 18 0  15.66906474820144 18 0  15.53956834532374 18 0  15.41007194244604 18 0  15.28057553956834 18 0  15.15107913669064 18 0  15.02158273381295 18 0  14.89208633093525 18 0  14.76258992805755 18 0  14.63309352517985 18 0  14.50359712230215 18 0  14.37410071942446 18 0  14.24460431654676 18 0  14.11510791366906 18 0  13.98561151079136 18 0  13.85611510791366 18 0  13.72661870503597 18 0  13.59712230215827 18 0  13.46762589928057 18 0  13.33812949640287 18 0  13.20863309352517 18 0  13.07913669064748 18 0  12.94964028776977 18 0  12.82014388489208 18 0  12.69064748201438 18 0  12.56115107913668 18 0  12.43165467625898 18 0  12.30215827338128 18 0  12.17266187050359 18 0  12.04316546762589 18 0  11.91366906474819 18 0  11.78417266187049 18 0  11.65467625899279 18 0  11.52517985611509 18 0  11.3956834532374 18 0  11.2661870503597 18 0  11.136690647482 18 0  11.0071942446043 18 0  10.8776978417266 18 0  10.7482014388489 18 0  10.6187050359712 18 0  10.48920863309351 18 0  10.35971223021581 18 0  10.23021582733811 18 0  10.10071942446041 18 0  9.971223021582714 18 0  9.841726618705016 18 0  9.712230215827317 18 0  9.582733812949618 18 0  9.453237410071921 18 0  9.323741007194224 18 0  9.194244604316525 18 0  9.064748201438828 18 0  8.935251798561131 18 0  8.805755395683434 18 0  8.676258992805735 18 0  8.546762589928038 18 0  8.417266187050341 18 0  8.287769784172642 18 0  8.158273381294947 18 0  8.028776978417248 18 0  7.899280575539549 18 0  7.769784172661854 18 0  7.640287769784155 18 0  7.510791366906458 18 0  7.381294964028761 18 0  7.251798561151062 18 0  7.122302158273365 18 0  6.992805755395668 18 0  6.86330935251797 18 0  6.733812949640273 18 0  6.604316546762576 18 0  6.474820143884878 18 0  6.34532374100718 18 0  6.215827338129483 18 0  6.086330935251786 18 0  5.956834532374087 18 0  5.827338129496392 18 0  5.697
[...]
<PointData  Vectors="f_21"> 
<DataArray  type="Float64"  Name="f_21"  NumberOfComponents="3" format="ascii">-3.1885337901219886e-03 -2.3809523266648215e-03 0.0000000000000000e+00  0.0000000000000000e+00 0.0000000000000000e+00 0.0000000000000000e+00  -5.5354713134132807e-03 -2.0926527834724543e-02 0.0000000000000000e+00  -7.7233231208148597e-03 -3.6374786549151585e-02 0.0000000000000000e+00  -7.6293556450428117e-03 -3.6374400226317292e-02 0.0000000000000000e+00  -4.1571523347539215e-03 -5.2052017685500156e-02 0.0000000000000000e+00  2.0595529064565705e-03 -6.2023969178705417e-02 0.0000000000000000e+00  4.0415914112954358e-03 -6.2028329857599498e-02 0.0000000000000000e+00  1.3959545865786644e-02 -8.4477406880781203e-02 0.0000000000000000e+00  2.2744013155815687e-02 -9.4408813301129046e-02 0.0000000000000000e+00  2.5111555383468171e-02 -9.4415237593534623e-02 0.0000000000000000e+00  3.7874063089328544e-02 -1.1821957392827330e-01 0.0000000000000000e+00  5.3842507512295121e-02 -1.2205590512877718e-01 0.0000000000000000e+00  5.8339090021517000e-02 -1.2208076576846930e-01 0.0000000000000000e+00  8.0096106075375095e-02 -1.5452010766379135e-01 0.0000000000000000e+00  9.1249513120698011e-02 -1.8292821236393531e-01 0.0000000000000000e+00  8.6880805524250537e-02 -1.8784717732158732e-01 0.0000000000000000e+00  1.6685706944580070e-01 -4.1203410051097528e-01 0.0000000000000000e+00  9.2378904840527978e-02 -4.0515703761429078e-01 0.0000000000000000e+00  7.6763572528409471e-02 -2.6388295321986904e-01 0.0000000000000000e+00  7.6576077280467919e-02 -2.6388318649533560e-01 0.0000000000000000e+00  6.0760457022501595e-02 -2.2030927779223192e-01 0.0000000000000000e+00  5.4694286531928239e-02 -2.2026457286504902e-01 0.0000000000000000e+00  3.7632142616631309e-02 -1.3960340346526673e-01 0.0000000000000000e+00  3.6009086210464468e-02 -1.3960111698866087e-01 0.0000000000000000e+00  2.4162695008547775e-02 -8.1563446806515644e-02 0.0000000000000000e+00  2.1291816738717263e-02 -8.1554113229237446e-02 0.0000000000000000e+00  5.5124072452246518e-03 -4.3362148862398815e-03 0.0000000000000000e+00  0.0000000000000000e+00 0.0000000000000000e+00 0.0000000000000000e+00  -3.1404962640614602e-03 -2.1342622962953105e-02 0.0000000000000000e+00  -1.1583233125252077e-03 -2.1557635296838112e-02 0.0000000000000000e+00  -8.0841473644079976e-04 -2.4086630408232688e-02 0.0000000000000000e+00  2.4739845515264064e-03 -5.4410018580568147e-02 0.0000000000000000e+00  5.4028195266426823e-03 -5.6214147222074198e-02 0.0000000000000000e+00  1.0518930121476849e-02 -6.3628497203092355e-02 0.0000000000000000e+00  1.4794772022427008e-03 -2.9158328437399919e-02 0.0000000000000000e+00  4.0697866440787085e-03 -3.8040338360792313e-02 0.0000000000000000e+00  1.2147786264979020e-02 -7.9190555780019017e-02 0.0000000000000000e+00  2.4392712892805115e-02 -1.0144055540606664e-01 0.0000000000000000e+00  1.7657054324435154e-02 -8.8301510582670217e-02 0.0000000000000000e+00  4.5531489855422907e-02 -1.2209639959685084e-01 0.0000000000000000e+00  2.3593791919147119e-02 -9.0728544841423453e-02 0.0000000000000000e+00  2.4909149849749273e-02 -1.0310683969582822e-01 0.0000000000000000e+00  4.6336845538565555e-02 -1.2457434095847579e-01 0.0000000000000000e+00  5.1976519585098621e-02 -1.4163763921003936e-01 0.0000000000000000e+00  8.1740181761249392e-02 -1.5591874258065072e-01 0.0000000000000000e+00  8.5636457560257465e-02 -1.5653596559732896e-01 0.0000000000000000e+00  8.1398698654970097e-02 -1.7789574751096834e-01 0.0000000000000000e+00  3.4042644010725390e-02 -1.2769407172284797e-01 0.0000000000000000e+00  4.7408762959223930e-02 -1.7631214950633342e-01 0.0000000000000000e+00  3.2921479798683990e-02 -1.6475853603818805e-01 0.0000000000000000e+00  6.8704417699945702e-02 -2.2973353430958524e-01 0.0000000000000000e+00  8.4750178322114678e-02 -2.2009812554549846e-01 0.0000000000000000e+00  5.7602663570193613e-02 -2.9940729286359341e-01 0.0000000000000000e+00  -3.2875455665924941e-03 -2.3864444026089541e-03 0.0000000000000000e+00  -3.3602308550591243e-03 -2.4068202257462082e-03 0.0000000000000000e+00  -3.3773770793441267e-03 -2.4235811438848374e-03 0.0000000000000000e+00  -3.3331609581581621e-03 -2.4217558346618330e-03 0.0000000000000000e+00  -3.2307507083693182e-03 -2.3911219291848714e-03 0.0000000000000000e+00  -3.0758892509459559e-03 -2.3271355564568699e-03 0.0000000000000000e+00  -2.8736416969926933e-03 -2.2283049863370558e-03 0.0000000000000000e+00  -2.6278148684947050e-03 -2.0935659130256390e-03 0.0000000000000000e+00  -2.3402643911519566e-03 -1.9216308583599880e-03 0.0000000000000000e+00  -2.0108189091269314e-03 -1.7094316542829099e-03 0.0000000000000000e+00  -1.6368257172622068e-03 -1.4507193643988792e-03 0.0000000000000000e+00  -1.2117454172714905e-03 -1.1318534435781256e-03 0.0000000000000000e+00  -7.0880459007971507e-04 -7.2031114645508608e-04 0.0000000000000000e+00  -3.1762244128996468e-03 -2.4813443412958925e-03 0.0000000000000000e+00  -3.1312098558879909e-03 -2.6192095705375113e-03 0.0000000000000000e+00  -3.0660133998563505e-03 -2.8486888853625080e-03 0.0000000000000000e+00  -3.0054199546026708e-03 -3.2021224095619238e-03 0.0000000000000000e+00  -2.9624537626593271e-03 -3.6948838948505079e-03 0.0000000000000000e+00  -2.9531595248232126e-03 -4.3379663102001472e-03 0.0000000000000000e+00  -2.9893450363991840e-03 -5.1371454066696416e-03 0.0000000000000000e+00  -3.0778790462147004e-03 -6.0989617207223203e-03 0.0000000000000000e+00  -3.2251542532073128e-03 -7.2310635825164780e-03 0.0000000000000000e+00  -3.4310944486748737e-03 -8.5456988481602599e-03 0.0000000000000000e+00  -3.6929299058000762e-03 -1.0060951241121658e-02 0.0000000000000000e+00  -4.0035496088791011e-03 -1.1796902074499594e-02 0.0000000000000000e+00  -4.3540736016544250e-03 -1.3775371318754301e-02 0.0000000000000000e+00  -4.7367380576412580e-03 -1.5995034583461850e-02 0.0000000000000000e+00  -5.1393909146693973e-03 -1.8405562666093153e-02 0.0000000000000000e+00  -5.8777730804694577e-03 -2.3412465964128160e-02 0.0000000000000000e+00  -6.1317020234114986e-03 -2.5751238893359302e-02 0.0000000000000000e+00  -6.2856463438156415e-03 -2.7880188535372673e-02 0.0000000000000000e+00  -6.3639326240719479e-03 -2.9776669807876306e-02 0.0000000000000000e+00  -6.4207343368539241e-03 -3.1447298924647524e-02 0.0000000000000000e+00  -6.5072336511006364e-03 -3.2895626899779068e-02 0.0000000000000000e+00  -6.6546423126603695e-03 -3.4110405142581297e-02 0.0000000000000000e+00  -6.8619317016470737e-03 -3.5072884625856456e-02 0.0000000000000000e+00  -7.1059900294870243e-03 -3.5770348012788472e-02 0.0000000000000000e+00  -7.3440557050340341e-03 -3.6210326682487588e-02 0.0000000000000000e+00  -7.5349799669278067e-03 -3.6430855689139410e-02 0.0000000000000000e+00  -7.6554018404970253e-03 -3.6497475093219357e-02 0.0000000000000000e+00  -7.7115380956921985e-03 -3.6482440802137452e-02 0.0000000000000000e+00  -7.7261271097685217e-03 -3.6444465570819207e-02 0.0000000000000000e+00  -7.7251302733643695e-03 -3.6407475181417674e-02 0.0000000000000000e+00  -7.6515780446046412e-03 -3.6374344623128926e-02 0.0000000000000000e+00  -7.6747784784571612e-03 -3.6374596435844384e-02 0.0000000000000000e+00  -7.6985551787185497e-03 -3.6374844612740251e-02 0.0000000000000000e+00  -7.6282088155175546e-03 -3.6401585663879181e-02 0.0000000000000000e+00  -7.6204307922877867e-03 -3.6423887112689957e-02 0.0000000000000000e+00  -7.5911695015736785e-03 -3.6443614704406484e-02 0.0000000000000000e+00  -7.5156092898161332e-03 -3.6486012271598818e-02 0.0000000000000000e+00  -7.3681180986161230e-03 -3.6605396665229405e-02 0.0000000000000000e+00  -7.1487666920285065e-03 -3.6878055770946966e-02 0.0000000000000000e+00  -6.8752305288187245e-03 -3.7363272248317037e-02 0.0000000000000000e+00  -6.5912439749170812e-03 -3.8100736824749175e-02 0.0000000000000000e+00  -6.3360259582628514e-03 -3.9094840866229795e-02 0.0000000000000000e+00  -6.1326134748392307e-03 -4.0330682192804099e-02 0.0000000000000000e+00  -5.9763093680470980e-03 -4.1788067317289769e-02 0.0000000000000000e+00  -5.8281106567826769e-03 -4.3450082431021969e-02 0.0000000000000000e+00  -5.6276727510363436e-03 -4.5321110821175202e-02 0.0000000000000000e+00  -5.3045840224234288e-03 -4.7397723563983349e-02 0.0000000000000000e+00  -4.8151061075911526e-03 -4.9665327291929337e-02 0.0000000000000000e+00  -3.3694369228116682e-03 -5.4446411801517866e-02 0.0000000000000000e+00  -2.5149896154828743e-03 -5.6716373436228068e-02 0.0000000000000000e+00  -1.6530114596196403e-03 -5.8776266120226690e-02 0.0000000000000000e+00  -8.4077203782879375e-04 -6.0574303217632491e-02 0.0000000000000000e+00  -1.2969854190782613e-04 -6.2103907391855333e-02 0.0000000000000000e+00  4.3960453216199732e-04 -6.3353542234454108e-02 0.0000000000000000e+00  8.5266764312075824e-04 -6.4304903257084059e-02 0.0000000000000000e+00  1.1265449785872520e-03 -6.4938585526756548e-02 0.0000000000000000e+00  1.2964963284203036e-03 -6.5244602665987236e-02 0.0000000000000000e+00  1.4146579722603917e-03 -6.5236219126873760e-02 0.0000000000000000e+00  1.5274127009535694e-03 -6.4960007265746522e-02 0.0000000000000000e+00  1.6597480637467806e-03 -6.4491355036593603e-02 0.0000000000000000e+00  1.8042822969742719e-03 -6.3912315863164593e-02 0.0000000000000000e+00  1.9360890081153586e-03 -6.3290791672818078e-02 0.0000000000000000e+00  2.0266387180944913e-03 -6.2658132825993099e-02 0.0000000000000000e+00  3.5473541434219188e-03 -6.2027062827308764e-02 0.0000000000000000e+00  3.0521106896197743e-03 -6.2026160074478628e-02 0.0000000000000000e+00  2.5563404464728746e-03 -6.2025250918721686e-02 0.0000000000000000e+00  4.0707542453015241e-03 -6.2656949027964537e-02 0.0000000000000000e+00  4.1657565359440292e-03 -6.3274951627092471e-02 0.0000000000000000e+00  4.3413293834993977e-03 -6.3879611878325429e-02 0.0000000000000000e+00  4.6213438980886824e-03 -6.4492543286832293e-02 0.0000000000000000e+00  5.0289955566561167e-03 -6.5165282589412579e-02 0.0000000000000000e+00  5.5594522169911693e-03 -6.5970454007897070e-02 0.0000000000000000e+00  6.1899510865849995e-03 -6.6961175854925711e-02 0.0000000000000000e+00  6.8731643354650353e-03 -6.8169149482468203e-02 0.0000000000000000e+00  7.5697699161811263e-03 -6.9591335830676213e-02 0.0000000000000000e+00  8.2595174054224327e-03 -7.1208446725657959e-02 0.0000000000000000e+00  8.9510536666442073e-03 -7.3000055086201360e-02 0.0000000000000000e+00  9.6846370828269721e-03 -7.4954730273511391e-02 0.0000000000000000e+00  1.0517281011726535e-02 -7.7083703503862538e-02 0.0000000000000000e+00  1.1504313791322060e-02 -7.9394138971268693e-02 0.0000000000000000e+00  1.2664435241572030e-02 -8.1880393801054038e-02 0.0000000000000000e+00  1.5309176938455335e-02 -8.7072663695676206e-02 0.0000000000000000e+00  1.6624147026066047e-02 -8.9516770716596250e-02 0.0000000000000000e+00  1.7846921495495431e-02 -9.1724670024351473e-02 0.0000000000000000e+00  1.8937026480910779e-02 -9.3639295976642736e-02 0.0000000000000000e+00  1.9856757004646040e-02 -9.5246295304554252e-02 0.0000000000000000e+00  2.0583582728527602e-02 -9.6542661126781185e-02 0.0000000000000000e+00  2.1116039338022741e-02 -9.7507842125299407e-02 0.0000000000000000e+00  2.1480328950288449e-02 -9.8123359080131020e-02 0.0000000000000000e+00  2.1724499664882730e-02 -9.8381550092921835e-02 0.0000000000000000e+00  2.1904717984610432e-02 -9.8300270134655046e-02 0.0000000000000000e+00  2.2070388954131989e-02 -9.7930213965277624e-02 0.0000000000000000e+00  2.2250347217206288e-02 -9.7355382861377474e-02 0.0000000000000000e+00  2.2433861009069966e-02 -9.6661755077815395e-02 0.0000000000000000e+00  2.2595247575012287e-02 -9.5920345290688172e-02 0.0000000000000000e+00  2.2704391403314903e-02 -9.5165853170311870e-02 0.0000000000000000e+00  2.4520988272963600e-02 -9.4413448540159539e-02 0.0000000000000000e+00  2.3929377651210417e-02 -9.4412039708100956e-02 0.0000000000000000e+00  2.3337218549857961e-02 -9.4410620953442548e-02 0.0000000000000000e+00  2.5146078941333260e-02 -9.5166590005889340e-02 0.0000000000000000e+00  2.5258631149696578e-02 -9.5906057698087244e-02 0.0000000000000000e+00  2.5464273791532901e-02 -9.6629844210677773e-02 0.0000000000000000e+00  2.5787568374999067e-02 -9.7359503834730382e-02 0.0000000000000000e+00  2.6252287716491806e-02 -9.8147090901653578e-02 0.0000000000000000e+00  2.6853419666384670e-02 -9.9066417676342916e-02 0.0000000000000000e+00  2.7566445615661055e-02 -1.0017068641415022e-01 0.0000000000000000e+00  2.8344015844452015e-02 -1.0148784277114388e-01 0.0000000000000000e+00  2.9151273499040228e-02 -1.0301091925677200e-01 0.0000000000000000e+00  2.9974290847268468e-02 -1.0471833174553274e-01 0.0000000000000000e+00  3.0834022930360382e-02 -1.0658557673283980e-01 0.0000000000000000e+00  3.1786268387764154e-02 -1.0860271904156199e-01 0.0000000000000000e+00  3.2911593310439087e-02 -1.1077517164950629e-01 0.0000000000000000e+00  3.4288013942238051e-02 -1.1311492737195757e-01 0.0000000000000000e+00  3.5954617967205053e-02 -1.1561624209722965e-01 0.0000000000000000e+00  3.9937658015898492e-02 -1.2081193981880302e-01 0.0000000000000000e+00  4.2007707591183087e-02 -1.2323380164100864e-01 0.0000000000000000e+00  4.3981731110480746e-02 -1.2538641736016021e-01 0.0000000000000000e+00  4.5786430284081504e-02 -1.2719789972774281e-01 0.0000000000000000e+00  4.7364850833825502e-02 -1.2864166369661581e-01 0.0000000000000000e+00  4.8687354287682096e-02 -1.2970604718581871e-01 0.0000000000000000e+00  4.9753368707916169e-02 -1.3036289564238024e-01 0.0000000000000000e+00  5.0595174374235115e-02 -1.3059206632929193e-01 0.0000000000000000e+00  5.1267622180799249e-02 -1.3039000066209822e-01 0.0000000000000000e+00  5.1830845654602081e-02 -1.2978431352278305e-01 0.0000000000000000e+00  5.2334015304516396e-02 -1.2883872542272376e-01 0.0000000000000000e+00  5.2801739204079295e-02 -1.2765068520330716e-01 0.0000000000000000e+00  5.3217073622069629e-02 -1.2631699829411935e-01 0.0000000000000000e+00  5.3548918200945379e-02 -1.2491682949674253e-01 0.0000000000000000e+00  5.3763676065797489e-02 -1.2349102325748583e-01 0.0000000000000000e+00  5.7216390411318582e-02 -1.2207440260125491e-01 0.0000000000000000e+00  5.6092582688867472e-02 -1.2206836041258343e-01 0.0000000000000000e+00  5.4968099251918950e-02 -1.2206230384784560e-01 0.0000000000000000e+00  5.8401077086488729e-02 -1.2351047143733455e-01 0.0000000000000000e+00  5.8607377358548048e-02 -1.2492204509955851e-01 0.0000000000000000e+00  5.8972597535045461e-02 -1.2630472604418166e-01 0.0000000000000000e+00  5.9521031858423140e-02 -1.2767364768003411e-01 0.0000000000000000e+00  6.0276273857571686e-02 -1.2907561887395988e-01 0.0000000000000000e+00  6.1233306715665695e-02 -1.3057996435673250e-01 0.0000000000000000e+00  6.2368350809017155e-02 -1.3223510236606553e-01 0.0000000000000000e+00  6.3637581873574697e-02 -1.3406399606381519e-01 0.0000000000000000e+00  6.5014102564502699e-02 -1.3605603122684312e-01 0.0000000000000000e+00  6.6496787695312518e-02 -1.3819016653930286e-01 0.0000000000000000e+00  6.8121823348222060e-02 -1.4045021875594876e-01 0.0000000000000000e+00  6.9957674689685265e-02 -1.4284298198389087e-01 0.0000000000000000e+00  7.2082637125170476e-02 -1.4540437166339884e-01 0.0000000000000000e+00  7.4537699746941674e-02 -1.4819042410573199e-01 0.0000000000000000e+00  7.7273295757708679e-02 -1.5123898103990632e-01 0.0000000000000000e+00  8.2737116568593255e-02 -1.5791860057258644e-01 0.0000000000000000e+00  8.4972771297121052e-02 -1.6122471758702964e-01 0.0000000000000000e+00  8.6734452874468390e-02 -1.6430335136856855e-01 0.0000000000000000e+00  8.8068969639986144e-02 -1.6704884695493769e-01 0.0000000000000000e+00  8.9075451682934764e-02 -1.6945082958147589e-01 0.0000000000000000e+00  8.9840727930085990e-02 -1.7155141091052936e-01 0.0000000000000000e+00  9.0425726799976583e-02 -1.7339878448660520e-01 0.0000000000000000e+00  9.0867543548094232e-02 -1.7504159924663801e-01 0.0000000000000000e+00  9.1186072420679859e-02 -1.7651733285349913e-01 0.0000000000000000e+00  9.1395399067882063e-02 -1.7784867483353237e-01 0.0000000000000000e+00  9.1504530166487380e-02 -1.7904716308864388e-01 0.0000000000000000e+00  9.1524330894091607e-02 -1.8010993677022583e-01 0.0000000000000000e+00  9.1474473595792125e-02 -1.8102852036095188e-01 0.0000000000000000e+00  9.1378058462715780e-02 -1.8179228075652756e-01 0.0000000000000000e+00  9.1285611373998196e-02 -1.8240653083328570e-01 0.0000000000000000e+00  8.7383645238824331e-02 -1.8723333430433323e-01 0.0000000000000000e+00  8.7850438352642640e-02 -1.8660628129059567e-01 0.0000000000000000e+00  8.8256306110358410e-02 -1.8598216526406772e-01 0.0000000000000000e+00  8.8593909378247779e-02 -1.8538100040963304e-01 0.0000000000000000e+00  8.8867032336562651e-02 -1.8482130592631607e-01 0.0000000000000000e+00  8.9086546192695126e-02 -1.8431738773515610e-01 0.0000000000000000e+00  8.9267845014446887e-02 -1.8388079584034220e-01 0.0000000000000000e+00  8.9429651024031553e-02 -1.8352063378975764e-01 0.0000000000000000e+00  8.9593586422313937e-02 -1.8324344145409802e-01 0.0000000000000000e+00  8.9783545187303443e-02 -1.8305218866141731e-01 0.0000000000000000e+00  9.0026387178957987e-02 -1.8294549601261761e-01 0.0000000000000000e+00  9.0348233116245374e-02 -1.8290988429884758e-01 0.0000000000000000e+00  9.0764716456032041e-02 -1.8292000411848691e-01 0.0000000000000000e+00  1.6666677564129342e-01 -4.0653606325151265e-01 0.0000000000000000e+00  1.6645484830247206e-01 -4.0108659302754734e-01 0.0000000000000000e+00  1.6622316939051751e-01 -3.9560531474136945e-01 0.0000000000000000e+00  1.6595666280322907e-01 -3.9005786893272676e-01 0.0000000000000000e+00  1.6563603389729981e-01 -3.8443102995195633e-01 0.0000000000000000e+00  1.6524769831881714e-01 -3.7872601172562703e-01 0.0000000000000000e+00  1.6478326421745734e-01 -3.7295143028174743e-01 0.0000000000000000e+00  1.6423774293046459e-01 -3.6712130931060882e-01 0.0000000000000000e+00  1.6361201893548388e-01 -3.6125229223699173e-01 0.0000000000000000e+00  1.6290987109209476e-01 -3.5536169764422343e-01 0.0000000000000000e+00  1.6213777900193049e-01 -3.4946622061122068e-01 0.0000000000000000e+00  1.6130341244067842e-01 -3.4358199340985812e-01 0.0000000000000000e+00  1.6041512621064513e-01 -3.3772400367236871e-01 0.0000000000000000e+00  1.5948070181991902e-01 -3.3190614165342813e-01 0.0000000000000000e+00  1.5850653926256414e-01 -3.2614176127266309e-01 0.0000000000000000e+00  1.5749720335935624e-01 -3.2044461196695356e-01 0.0000000000000000e+00  1.5645551860599460e-01 -3.1482895434516983e-01 0.0000000000000000e+00  1.5538168118874143e-01 -3.0931211017502430e-01 0.0000000000000000e+00  1.5427430346832677e-01 -3.0391374846122743e-01 0.0000000000000000e+00  1.5313032903461721e-01 -2.9865838620264734e-01 0.0000000000000000e+00  1.5194561310060450e-01 -2.9357761674357175e-01 0.0000000000000000e+00  1.5071531146717621e-01 -2.8871494606900533e-01 0.0000000000000000e+00  1.4943456898918669e-01 -2.8414420996306899e-01 0.0000000000000000e+00  1.4813153503601167e-01 -2.8001042214004707e-01 0.0000000000000000e+00  1.4685437559377740e-01 -2.7622525149567628e-01 0.0000000000000000e+00  1.4560380992229741e-01 -2.7269074855424946e-01 0.0000000000000000e+00  1.4437620336863166e-01 -2.6936650222178798e-01 0.0000000000000000e+00  1.4317065280784833e-01 -2.6622403772237363e-01 0.0000000000000000e+00  1.4198652062033568e-01 -2.6324205108201937e-01 0.0000000000000000e+00  1.4082508744965683e-01 -2.6040335799128822e-01 0.0000000000000000e+00  1.3968824354496623e-01 -2.5769282178612052e-01 0.0000000000000000e+00  1.3857903625639595e-01 -2.5509660565892739e-01 0.0000000000000000e+00  1.3750113131428074e-01 -2.5260139489186911e-01 0.0000000000000000e+00  1.3645837798014127e-01 -2.5019449655878201e-01 0.0000000000000000e+00  1.3545494400659558e-01 -2.4786285283775736e-01 0.0000000000000000e+00  1.3449428040256492e-01 -2.4559369668825951e-01 0.0000000000000000e+00  1.3357940153168679e-01 -2.4337465404472605e-01 0.0000000000000000e+00  1.327116608