<?xml version="1.0"?>
<VTKFile type="UnstructuredGrid"  version="0.1"  >
<UnstructuredGrid>
<Piece  NumberOfPoints="12853" NumberOfCells="23493">
<Points>
<DataArray  type="Float64"  NumberOfComponents="3"  format="ascii">-3.187178156719634e-14 1.7 0  0 0 0  1.3 3 0  -3.185690647650846e-14 4.300000000000001 0  -3.187178156719634e-14 4.699999999999999 0  1.3 6 0  -3.185690647650846e-14 7.300000000000001 0  -3.187178156719634e-14 7.699999999999999 0  1.3 9 0  -3.185690647650846e-14 10.3 0  -3.187178156719634e-14 10.7 0  1.3 12 0  -3.185690647650846e-14 13.3 0  -3.187178156719634e-14 13.7 0  1.3 15 0  -3.185690647650846e-14 16.3 0  0 18 0  18 18 0  17.99999999999997 16.3 0  17.99999999999997 13.7 0  17.99999999999997 13.3 0  17.99999999999997 10.7 0  17.99999999999997 10.3 0  17.99999999999997 7.7 0  17.99999999999997 7.3 0  17.99999999999997 4.7 0  17.99999999999997 4.3 0  17.99999999999997 1.7 0  18 0 0  4.3 3 0  7.3 3 0  10.3 3 0  4.3 6 0  7.3 6 0  10.3 6 0  13.3 3 0  16.3 3 0  13.3 6 0  16.3 6 0  4.3 9 0  4.3 12 0  7.3 9 0  10.3 9 0  7.3 12 0  10.3 12 0  4.3 15 0  7.3 15 0  10.3 15 0  13.3 9 0  13.3 12 0  16.3 9 0  16.3 12 0  13.3 15 0  16.3 15 0  0 1.578571428571429 0  0 1.457142857142856 0  0 1.335714285714285 0  0 1.214285714285712 0  0 1.092857142857142 0  0 0.9714285714285715 0  0 0.8499999999999979 0  0 0.7285714285714278 0  0 0.6071428571428577 0  0 0.485714285714284 0  0 0.3642857142857139 0  0 0.2428571428571438 0  0 0.1214285714285701 0  0.1274222824284281 1.706259855326144 0  0.2536174186209668 1.7249791354758 0  0.3773700804308007 1.755977563548128 0  0.497488462074617 1.798956607735327 0  0.6128157578737968 1.853502356347138 0  0.7222413029254824 1.919089504006691 0  0.8247112694127393 1.995086410628442 0  0.9192388155425116 2.080761184457488 0  1.004913589371558 2.17528873058726 0  1.080910495993309 2.277758697074517 0  1.146497643652861 2.387184242126203 0  1.201043392264673 2.502511537925383 0  1.244022436451871 2.622629919569199 0  1.275020864524199 2.746382581379033 0  1.293740144673856 2.872577717571571 0  1.293740144673856 3.127422282428428 0  1.2750208645242 3.253617418620966 0  1.244022436451872 3.3773700804308 0  1.201043392264673 3.497488462074616 0  1.146497643652862 3.612815757873796 0  1.08091049599331 3.722241302925481 0  1.00491358937156 3.824711269412738 0  0.9192388155425134 3.91923881554251 0  0.8247112694127412 4.004913589371556 0  0.7222413029254846 4.080910495993308 0  0.6128157578737984 4.146497643652861 0  0.4974884620746181 4.201043392264673 0  0.3773700804308024 4.244022436451871 0  0.2536174186209674 4.275020864524199 0  0.127422282428429 4.293740144673856 0  0 4.6 0  0 4.5 0  0 4.4 0  0.1274222824284281 4.706259855326143 0  0.2536174186209668 4.724979135475801 0  0.3773700804308007 4.755977563548129 0  0.497488462074617 4.798956607735327 0  0.6128157578737968 4.853502356347138 0  0.7222413029254824 4.919089504006691 0  0.8247112694127393 4.995086410628442 0  0.9192388155425116 5.080761184457488 0  1.004913589371558 5.17528873058726 0  1.080910495993309 5.277758697074518 0  1.146497643652861 5.387184242126203 0  1.201043392264673 5.502511537925383 0  1.244022436451871 5.622629919569198 0  1.275020864524199 5.746382581379033 0  1.293740144673856 5.872577717571572 0  1.293740144673856 6.127422282428428 0  1.2750208645242 6.253617418620967 0  1.244022436451872 6.377370080430801 0  1.201043392264673 6.497488462074616 0  1.146497643652862 6.612815757873795 0  1.08091049599331 6.722241302925481 0  1.00491358937156 6.824711269412737 0  0.9192388155425134 6.91923881554251 0  0.8247112694127412 7.004913589371556 0  0.7222413029254846 7.080910495993308 0  0.6128157578737984 7.146497643652861 0  0.4974884620746181 7.201043392264673 0  0.3773700804308024 7.244022436451871 0  0.2536174186209674 7.275020864524199 0  0.127422282428429 7.293740144673856 0  0 7.6 0  0 7.5 0  0 7.4 0  0.1274222824284281 7.706259855326143 0  0.2536174186209668 7.724979135475801 0  0.3773700804308007 7.755977563548129 0  0.497488462074617 7.798956607735327 0  0.6128157578737968 7.853502356347138 0  0.7222413029254824 7.919089504006691 0  0.8247112694127393 7.995086410628442 0  0.9192388155425116 8.080761184457488 0  1.004913589371558 8.17528873058726 0  1.080910495993309 8.277758697074518 0  1.146497643652861 8.387184242126203 0  1.201043392264673 8.502511537925383 0  1.244022436451871 8.622629919569199 0  1.275020864524199 8.746382581379033 0  1.293740144673856 8.872577717571572 0  1.293740144673856 9.127422282428428 0  1.2750208645242 9.253617418620966 0  1.244022436451872 9.377370080430801 0  1.201043392264673 9.497488462074616 0  1.146497643652862 9.612815757873795 0  1.08091049599331 9.722241302925481 0  1.00491358937156 9.824711269412738 0  0.9192388155425134 9.91923881554251 0  0.8247112694127412 10.00491358937156 0  0.7222413029254846 10.08091049599331 0  0.6128157578737984 10.14649764365286 0  0.4974884620746181 10.20104339226467 0  0.3773700804308024 10.24402243645187 0  0.2536174186209674 10.2750208645242 0  0.127422282428429 10.29374014467386 0  0 10.6 0  0 10.5 0  0 10.4 0  0.1274222824284281 10.70625985532614 0  0.2536174186209668 10.7249791354758 0  0.3773700804308007 10.75597756354813 0  0.497488462074617 10.79895660773533 0  0.6128157578737968 10.85350235634714 0  0.7222413029254824 10.91908950400669 0  0.8247112694127393 10.99508641062844 0  0.9192388155425116 11.08076118445749 0  1.004913589371558 11.17528873058726 0  1.080910495993309 11.27775869707452 0  1.146497643652861 11.3871842421262 0  1.201043392264673 11.50251153792538 0  1.244022436451871 11.6226299195692 0  1.275020864524199 11.74638258137903 0  1.293740144673856 11.87257771757157 0  1.293740144673856 12.12742228242843 0  1.2750208645242 12.25361741862097 0  1.244022436451872 12.3773700804308 0  1.201043392264673 12.49748846207462 0  1.146497643652862 12.6128157578738 0  1.08091049599331 12.72224130292548 0  1.00491358937156 12.82471126941274 0  0.9192388155425134 12.91923881554251 0  0.8247112694127412 13.00491358937156 0  0.7222413029254846 13.08091049599331 0  0.6128157578737984 13.14649764365286 0  0.4974884620746181 13.20104339226467 0  0.3773700804308024 13.24402243645187 0  0.2536174186209674 13.2750208645242 0  0.127422282428429 13.29374014467386 0  0 13.6 0  0 13.5 0  0 13.4 0  0.1274222824284281 13.70625985532614 0  0.2536174186209668 13.7249791354758 0  0.3773700804308007 13.75597756354813 0  0.497488462074617 13.79895660773533 0  0.6128157578737968 13.85350235634714 0  0.7222413029254824 13.91908950400669 0  0.8247112694127393 13.99508641062844 0  0.9192388155425116 14.08076118445749 0  1.004913589371558 14.17528873058726 0  1.080910495993309 14.27775869707452 0  1.146497643652861 14.3871842421262 0  1.201043392264673 14.50251153792538 0  1.244022436451871 14.6226299195692 0  1.275020864524199 14.74638258137903 0  1.293740144673856 14.87257771757157 0  1.293740144673856 15.12742228242843 0  1.2750208645242 15.25361741862097 0  1.244022436451872 15.3773700804308 0  1.201043392264673 15.49748846207462 0  1.146497643652862 15.6128157578738 0  1.08091049599331 15.72224130292548 0  1.00491358937156 15.82471126941274 0  0.9192388155425134 15.91923881554251 0  0.8247112694127412 16.00491358937156 0  0.7222413029254846 16.08091049599331 0  0.6128157578737984 16.14649764365286 0  0.4974884620746181 16.20104339226467 0  0.3773700804308024 16.24402243645187 0  0.2536174186209674 16.2750208645242 0  0.127422282428429 16.29374014467385 0  0 17.87857142857143 0  0 17.75714285714286 0  0 17.63571428571429 0  0 17.51428571428571 0  0 17.39285714285714 0  0 17.27142857142857 0  0 17.15 0  0 17.02857142857143 0  0 16.90714285714286 0  0 16.78571428571428 0  0 16.66428571428571 0  0 16.54285714285714 0  0 16.42142857142857 0  17.8705035971223 18 0  17.7410071942446 18 0  17.61151079136691 18 0  17.48201438848921 18 0  17.35251798561151 18 0  17.22302158273381 18 0  17.09352517985612 18 0  16.96402877697842 18 0  16.83453237410072 18 0  16.70503597122302 18 0  16.57553956834532 18 0  16.44604316546762 18 0  16.31654676258993 18 0  16.18705035971223 18 0  16.05755395683453 18 0  15.92805755395683 18 0  15.79856115107913 18 0  15.66906474820144 18 0  15.53956834532374 18 0  15.41007194244604 18 0  15.28057553956834 18 0  15.15107913669064 18 0  15.02158273381295 18 0  14.89208633093525 18 0  14.76258992805755 18 0  14.63309352517985 18 0  14.50359712230215 18 0  14.37410071942446 18 0  14.24460431654676 18 0  14.11510791366906 18 0  13.98561151079136 18 0  13.85611510791366 18 0  13.72661870503597 18 0  13.59712230215827 18 0  13.46762589928057 18 0  13.33812949640287 18 0  13.20863309352517 18 0  13.07913669064748 18 0  12.94964028776977 18 0  12.82014388489208 18 0  12.69064748201438 18 0  12.56115107913668 18 0  12.43165467625898 18 0  12.30215827338128 18 0  12.17266187050359 18 0  12.04316546762589 18 0  11.91366906474819 18 0  11.78417266187049 18 0  11.65467625899279 18 0  11.52517985611509 18 0  11.3956834532374 18 0  11.2661870503597 18 0  11.136690647482 18 0  11.0071942446043 18 0  10.8776978417266 18 0  10.7482014388489 18 0  10.6187050359712 18 0  10.48920863309351 18 0  10.35971223021581 18 0  10.23021582733811 18 0  10.10071942446041 18 0  9.971223021582714 18 0  9.841726618705016 18 0  9.712230215827317 18 0  9.582733812949618 18 0  9.453237410071921 18 0  9.323741007194224 18 0  9.194244604316525 18 0  9.064748201438828 18 0  8.935251798561131 18 0  8.805755395683434 18 0  8.676258992805735 18 0  8.546762589928038 18 0  8.417266187050341 18 0  8.287769784172642 18 0  8.158273381294947 18 0  8.028776978417248 18 0  7.899280575539549 18 0  7.769784172661854 18 0  7.640287769784155 18 0  7.510791366906458 18 0  7.381294964028761 18 0  7.251798561151062 18 0  7.122302158273365 18 0  6.992805755395668 18 0  6.86330935251797 18 0  6.733812949640273 18 0  6.604316546762576 18 0  6.474820143884878 18 0  6.34532374100718 18 0  6.215827338129483 18 0  6.086330935251786 18 0  5.956834532374087 18 0  5.827338129496392 18 0  5.697
[...]
<PointData  Vectors="f_21"> 
<DataArray  type="Float64"  Name="f_21"  NumberOfComponents="3" format="ascii">-3.8516272936634532e-03 -2.8728412780873289e-03 0.0000000000000000e+00  0.0000000000000000e+00 0.0000000000000000e+00 0.0000000000000000e+00  -6.5035113053026799e-03 -2.5244321434413016e-02 0.0000000000000000e+00  -8.7204211538045584e-03 -4.3594405982390040e-02 0.0000000000000000e+00  -8.5014805111614401e-03 -4.3593988242583495e-02 0.0000000000000000e+00  -3.7363790650774523e-03 -6.2811887558512636e-02 0.0000000000000000e+00  4.9734264198295552e-03 -7.3827730310923684e-02 0.0000000000000000e+00  7.7075113266413531e-03 -7.3836421751176010e-02 0.0000000000000000e+00  2.1099384788729112e-02 -1.0208999331178753e-01 0.0000000000000000e+00  3.2915829819974561e-02 -1.1351508536567934e-01 0.0000000000000000e+00  3.6040263188233244e-02 -1.1352658530756533e-01 0.0000000000000000e+00  5.2795744318064650e-02 -1.4315289456804037e-01 0.0000000000000000e+00  7.4237105613160909e-02 -1.4631857475736326e-01 0.0000000000000000e+00  8.0231348413736220e-02 -1.4636299708861469e-01 0.0000000000000000e+00  1.0874854462856175e-01 -1.8769881550845555e-01 0.0000000000000000e+00  1.2319530830622075e-01 -2.2252328655500186e-01 0.0000000000000000e+00  1.1822596799263048e-01 -2.2856557265671437e-01 0.0000000000000000e+00  2.1730805325502781e-01 -5.1284409409699816e-01 0.0000000000000000e+00  1.2174896425300347e-01 -5.0359689484829673e-01 0.0000000000000000e+00  1.0184567295058367e-01 -3.2393498832398315e-01 0.0000000000000000e+00  1.0219215290755110e-01 -3.2393514343613511e-01 0.0000000000000000e+00  8.0209920153415881e-02 -2.7711121580205100e-01 0.0000000000000000e+00  7.1481244521601012e-02 -2.7701756310713366e-01 0.0000000000000000e+00  4.8252669008768415e-02 -1.7132013058026788e-01 0.0000000000000000e+00  4.6608352106219574e-02 -1.7131792060864687e-01 0.0000000000000000e+00  3.1028170094961109e-02 -1.0267454609004770e-01 0.0000000000000000e+00  2.7020874178013368e-02 -1.0265568617418651e-01 0.0000000000000000e+00  6.7629810255525136e-03 -5.3290777441944411e-03 0.0000000000000000e+00  0.0000000000000000e+00 0.0000000000000000e+00 0.0000000000000000e+00  -3.6413806110922459e-03 -2.5963372267369840e-02 0.0000000000000000e+00  -1.0115780906615995e-03 -2.6211645968228649e-02 0.0000000000000000e+00  -8.8838785222057875e-04 -2.9394486264954431e-02 0.0000000000000000e+00  4.7845688227787534e-03 -6.6143908454632416e-02 0.0000000000000000e+00  7.9226895439553219e-03 -6.8475915610067647e-02 0.0000000000000000e+00  1.4965747239260528e-02 -7.7606133404319586e-02 0.0000000000000000e+00  2.4077473494396621e-03 -3.5605267069705702e-02 0.0000000000000000e+00  4.6373548097737843e-03 -4.7044491108768106e-02 0.0000000000000000e+00  1.5418582590884021e-02 -9.7152100997526442e-02 0.0000000000000000e+00  3.2900432535683699e-02 -1.2538105145464445e-01 0.0000000000000000e+00  2.5144349258880934e-02 -1.0742163489481142e-01 0.0000000000000000e+00  6.2833824080820305e-02 -1.4866530058818381e-01 0.0000000000000000e+00  3.3075729141852646e-02 -1.1051558162221038e-01 0.0000000000000000e+00  3.3530819093661832e-02 -1.2579619176405218e-01 0.0000000000000000e+00  6.3115159236430227e-02 -1.5184791579515772e-01 0.0000000000000000e+00  7.1139339832682835e-02 -1.7292372397811176e-01 0.0000000000000000e+00  1.1021449807849083e-01 -1.9006719149127235e-01 0.0000000000000000e+00  1.1544239273258418e-01 -1.9106875605030380e-01 0.0000000000000000e+00  1.0959146295818696e-01 -2.1717985285014299e-01 0.0000000000000000e+00  4.6779004551084941e-02 -1.5641604580272103e-01 0.0000000000000000e+00  6.3084298775565387e-02 -2.1607950930640615e-01 0.0000000000000000e+00  4.1324297741478007e-02 -2.0356837603839198e-01 0.0000000000000000e+00  9.3893316352309908e-02 -2.8384193674697372e-01 0.0000000000000000e+00  1.1465261975356664e-01 -2.6991771298199074e-01 0.0000000000000000e+00  7.6501396633298371e-02 -3.6978220008365492e-01 0.0000000000000000e+00  -3.9719651488049606e-03 -2.8794581371218500e-03 0.0000000000000000e+00  -4.0606498611743006e-03 -2.9041515907355141e-03 0.0000000000000000e+00  -4.0823051727655567e-03 -2.9246709683968886e-03 0.0000000000000000e+00  -4.0297711242217463e-03 -2.9229252989345709e-03 0.0000000000000000e+00  -3.9067796034592591e-03 -2.8865217226863049e-03 0.0000000000000000e+00  -3.7202087999100675e-03 -2.8099072764154209e-03 0.0000000000000000e+00  -3.4761447093759942e-03 -2.6912303917459002e-03 0.0000000000000000e+00  -3.1791726093412329e-03 -2.5291504467917668e-03 0.0000000000000000e+00  -2.8315326365857432e-03 -2.3220639517051809e-03 0.0000000000000000e+00  -2.4330267460834121e-03 -2.0662155752060787e-03 0.0000000000000000e+00  -1.9804699194567363e-03 -1.7540032200209091e-03 0.0000000000000000e+00  -1.4659970749305317e-03 -1.3688776270379566e-03 0.0000000000000000e+00  -8.5728874723781502e-04 -8.7141906641685109e-04 0.0000000000000000e+00  -3.8367409700215283e-03 -2.9947983739896816e-03 0.0000000000000000e+00  -3.7821640999640745e-03 -3.1618050593450399e-03 0.0000000000000000e+00  -3.7028676338468859e-03 -3.4392922231150811e-03 0.0000000000000000e+00  -3.6286812493170734e-03 -3.8664351237413766e-03 0.0000000000000000e+00  -3.5752402584640266e-03 -4.4618828819518426e-03 0.0000000000000000e+00  -3.5617986020703082e-03 -5.2389548953539365e-03 0.0000000000000000e+00  -3.6024475783792841e-03 -6.2046122928795782e-03 0.0000000000000000e+00  -3.7052220449522240e-03 -7.3666601262705579e-03 0.0000000000000000e+00  -3.8774649597281101e-03 -8.7341546786746296e-03 0.0000000000000000e+00  -4.1185071610981691e-03 -1.0321608796967086e-02 0.0000000000000000e+00  -4.4241227689739903e-03 -1.2150469230928688e-02 0.0000000000000000e+00  -4.7844523838048584e-03 -1.4244567882588984e-02 0.0000000000000000e+00  -5.1871189015834183e-03 -1.6629817644028596e-02 0.0000000000000000e+00  -5.6210129194416330e-03 -1.9304449679166488e-02 0.0000000000000000e+00  -6.0703391625894420e-03 -2.2208048912840256e-02 0.0000000000000000e+00  -6.8661831975389822e-03 -2.8238855013210076e-02 0.0000000000000000e+00  -7.1204645989582068e-03 -3.1056769631403202e-02 0.0000000000000000e+00  -7.2559418705649015e-03 -3.3622306536030225e-02 0.0000000000000000e+00  -7.3044805536681039e-03 -3.5907076118314660e-02 0.0000000000000000e+00  -7.3327063370752432e-03 -3.7917849381676867e-02 0.0000000000000000e+00  -7.4025719499149177e-03 -3.9657711075625442e-02 0.0000000000000000e+00  -7.5512237801535166e-03 -4.1112008560733562e-02 0.0000000000000000e+00  -7.7764984386634716e-03 -4.2257495689533402e-02 0.0000000000000000e+00  -8.0496517619029675e-03 -4.3078713974676039e-02 0.0000000000000000e+00  -8.3183596476840357e-03 -4.3585178545787640e-02 0.0000000000000000e+00  -8.5326198717445064e-03 -4.3823567255307602e-02 0.0000000000000000e+00  -8.6642337672720345e-03 -4.3873853719803076e-02 0.0000000000000000e+00  -8.7209267396106196e-03 -4.3824003844364169e-02 0.0000000000000000e+00  -8.7304226482473411e-03 -4.3745458987600669e-02 0.0000000000000000e+00  -8.7242718891654466e-03 -4.3667487219353054e-02 0.0000000000000000e+00  -8.5546765356496191e-03 -4.3593909475761430e-02 0.0000000000000000e+00  -8.6090577391189967e-03 -4.3594201404790658e-02 0.0000000000000000e+00  -8.6641389602825514e-03 -4.3594488699599851e-02 0.0000000000000000e+00  -8.4984608469136531e-03 -4.3660403940265116e-02 0.0000000000000000e+00  -8.4841382770661933e-03 -4.3720582299027928e-02 0.0000000000000000e+00  -8.4405766580508430e-03 -4.3776994687512380e-02 0.0000000000000000e+00  -8.3378066647602448e-03 -4.3859885409198711e-02 0.0000000000000000e+00  -8.1449174782357494e-03 -4.4034696402412858e-02 0.0000000000000000e+00  -7.8621387053351144e-03 -4.4393408965166775e-02 0.0000000000000000e+00  -7.5109858271828166e-03 -4.5007329543548913e-02 0.0000000000000000e+00  -7.1443285304227848e-03 -4.5923875106590815e-02 0.0000000000000000e+00  -6.8092513150451797e-03 -4.7147599236406379e-02 0.0000000000000000e+00  -6.5328132099883689e-03 -4.8659575239527034e-02 0.0000000000000000e+00  -6.3078859442408236e-03 -5.0434351406890635e-02 0.0000000000000000e+00  -6.0849226708853338e-03 -5.2450476554990889e-02 0.0000000000000000e+00  -5.7874166050086266e-03 -5.4712191512230376e-02 0.0000000000000000e+00  -5.3256938146222024e-03 -5.7215474090192224e-02 0.0000000000000000e+00  -4.6429602452954270e-03 -5.9943363996257076e-02 0.0000000000000000e+00  -2.6583104041062312e-03 -6.5688913882159833e-02 0.0000000000000000e+00  -1.4943294565909803e-03 -6.8415084990748928e-02 0.0000000000000000e+00  -3.2441335348338418e-04 -7.0885260957300189e-02 0.0000000000000000e+00  7.7685557627258208e-04 -7.3033819351880330e-02 0.0000000000000000e+00  1.7450876908649319e-03 -7.4850540812149396e-02 0.0000000000000000e+00  2.5307257783504004e-03 -7.6319305799601916e-02 0.0000000000000000e+00  3.1170313910895819e-03 -7.7416653146847259e-02 0.0000000000000000e+00  3.5258935335416271e-03 -7.8118752692851692e-02 0.0000000000000000e+00  3.8009113139094567e-03 -7.8414021873672149e-02 0.0000000000000000e+00  4.0057516402295301e-03 -7.8319873632168593e-02 0.0000000000000000e+00  4.1964208021054378e-03 -7.7894424138455431e-02 0.0000000000000000e+00  4.4025218685237542e-03 -7.7230626454262236e-02 0.0000000000000000e+00  4.6143011799341443e-03 -7.6429179245206175e-02 0.0000000000000000e+00  4.8008647184774505e-03 -7.5573348206455560e-02 0.0000000000000000e+00  4.9272503510488742e-03 -7.4702001538200016e-02 0.0000000000000000e+00  7.0255393977084529e-03 -7.3834039871846877e-02 0.0000000000000000e+00  6.3423445738464814e-03 -7.3832092421338952e-02 0.0000000000000000e+00  5.6585028889364316e-03 -7.3830135930907620e-02 0.0000000000000000e+00  7.7469725284747349e-03 -7.4704069260854072e-02 0.0000000000000000e+00  7.8765714881888198e-03 -7.5557933481485665e-02 0.0000000000000000e+00  8.1140146531001028e-03 -7.6393686184104845e-02 0.0000000000000000e+00  8.4879790714544219e-03 -7.7236513236920101e-02 0.0000000000000000e+00  9.0261972635525024e-03 -7.8147882423843615e-02 0.0000000000000000e+00  9.7224034851077067e-03 -7.9214726917634093e-02 0.0000000000000000e+00  1.0548698550691593e-02 -8.0500249421379608e-02 0.0000000000000000e+00  1.1447808068306956e-02 -8.2041513031914259e-02 0.0000000000000000e+00  1.2372742617550024e-02 -8.3833514892033029e-02 0.0000000000000000e+00  1.3300307949870383e-02 -8.5851747685473490e-02 0.0000000000000000e+00  1.4243054953372001e-02 -8.8070682592604643e-02 0.0000000000000000e+00  1.5252374457709368e-02 -9.0476453128414333e-02 0.0000000000000000e+00  1.6400435853768533e-02 -9.3082993783437387e-02 0.0000000000000000e+00  1.7756160913836895e-02 -9.5901765821022666e-02 0.0000000000000000e+00  1.9340682204296175e-02 -9.8928802565569948e-02 0.0000000000000000e+00  2.2920438338353083e-02 -1.0525110360546817e-01 0.0000000000000000e+00  2.4682157593648200e-02 -1.0822842393720539e-01 0.0000000000000000e+00  2.6308547696195388e-02 -1.1091602291322362e-01 0.0000000000000000e+00  2.7750418546104806e-02 -1.1324073542205806e-01 0.0000000000000000e+00  2.8964977715943231e-02 -1.1518283719578214e-01 0.0000000000000000e+00  2.9928783233097840e-02 -1.1673757838455348e-01 0.0000000000000000e+00  3.0643742639526534e-02 -1.1787911030989284e-01 0.0000000000000000e+00  3.1144798745065372e-02 -1.1858508422987497e-01 0.0000000000000000e+00  3.1492655757831438e-02 -1.1884706295445654e-01 0.0000000000000000e+00  3.1756879506593172e-02 -1.1868831458566506e-01 0.0000000000000000e+00  3.1997907853524347e-02 -1.1817231758850530e-01 0.0000000000000000e+00  3.2250466610696936e-02 -1.1740292379113393e-01 0.0000000000000000e+00  3.2500849450197704e-02 -1.1648592400605409e-01 0.0000000000000000e+00  3.2717236394110352e-02 -1.1550858184834881e-01 0.0000000000000000e+00  3.2862625320569418e-02 -1.1451380247156748e-01 0.0000000000000000e+00  3.5260764819881482e-02 -1.1352349160775335e-01 0.0000000000000000e+00  3.4479993041233524e-02 -1.1352085644165191e-01 0.0000000000000000e+00  3.3698548999790738e-02 -1.1351820787100332e-01 0.0000000000000000e+00  3.6084917259961852e-02 -1.1451848319302646e-01 0.0000000000000000e+00  3.6232125150746024e-02 -1.1549528376304181e-01 0.0000000000000000e+00  3.6500128562689173e-02 -1.1645164567704477e-01 0.0000000000000000e+00  3.6918618892307249e-02 -1.1741312603298031e-01 0.0000000000000000e+00  3.7516169226501098e-02 -1.1844240383738913e-01 0.0000000000000000e+00  3.8286226029296669e-02 -1.1962841972157771e-01 0.0000000000000000e+00  3.9198624259787825e-02 -1.2103474096101063e-01 0.0000000000000000e+00  4.0195987893676073e-02 -1.2269381388041165e-01 0.0000000000000000e+00  4.1236970637535071e-02 -1.2459550157160543e-01 0.0000000000000000e+00  4.2306754030431777e-02 -1.2671190902862675e-01 0.0000000000000000e+00  4.3434246630176657e-02 -1.2901191516144669e-01 0.0000000000000000e+00  4.4692204890430305e-02 -1.3148235735848843e-01 0.0000000000000000e+00  4.6185326550123973e-02 -1.3412948928347770e-01 0.0000000000000000e+00  4.8015780695142424e-02 -1.3697005876336904e-01 0.0000000000000000e+00  5.0235707188376943e-02 -1.3999983938615657e-01 0.0000000000000000e+00  5.5548594104262494e-02 -1.4629560505255554e-01 0.0000000000000000e+00  5.8307009978171405e-02 -1.4923162287460570e-01 0.0000000000000000e+00  6.0932391773239884e-02 -1.5183631717127305e-01 0.0000000000000000e+00  6.3329137387347731e-02 -1.5401599759851520e-01 0.0000000000000000e+00  6.5427001462905657e-02 -1.5573371738550398e-01 0.0000000000000000e+00  6.7192008926354158e-02 -1.5697268660658958e-01 0.0000000000000000e+00  6.8626504022168050e-02 -1.5769673724795813e-01 0.0000000000000000e+00  6.9772873585570813e-02 -1.5788128620782421e-01 0.0000000000000000e+00  7.0700299630253344e-02 -1.5752328394888387e-01 0.0000000000000000e+00  7.1483221915202622e-02 -1.5665881106679733e-01 0.0000000000000000e+00  7.2181552576032204e-02 -1.5536845678448427e-01 0.0000000000000000e+00  7.2824333091298918e-02 -1.5377381749239949e-01 0.0000000000000000e+00  7.3389569120461656e-02 -1.5199507275434129e-01 0.0000000000000000e+00  7.3838183648113315e-02 -1.5013044593210462e-01 0.0000000000000000e+00  7.4128470722453196e-02 -1.4823116686751367e-01 0.0000000000000000e+00  7.8734562682591214e-02 -1.4635171943060266e-01 0.0000000000000000e+00  7.7236418271960705e-02 -1.4634082478009672e-01 0.0000000000000000e+00  7.5737439986651903e-02 -1.4632990932601292e-01 0.0000000000000000e+00  8.0310453893913503e-02 -1.4826940078467640e-01 0.0000000000000000e+00  8.0581519928773965e-02 -1.5015255596833418e-01 0.0000000000000000e+00  8.1062209533061536e-02 -1.5199782299921397e-01 0.0000000000000000e+00  8.1781793716443243e-02 -1.5382226394049434e-01 0.0000000000000000e+00  8.2768411610686571e-02 -1.5568165863992681e-01 0.0000000000000000e+00  8.4015106859994651e-02 -1.5765903725800071e-01 0.0000000000000000e+00  8.5492198526056579e-02 -1.5981162095750340e-01 0.0000000000000000e+00  8.7146263568066359e-02 -1.6216523660984891e-01 0.0000000000000000e+00  8.8945562348007268e-02 -1.6470491590268960e-01 0.0000000000000000e+00  9.0890939353281963e-02 -1.6740354270939173e-01 0.0000000000000000e+00  9.3029722285478941e-02 -1.7024113568411825e-01 0.0000000000000000e+00  9.5449096436409059e-02 -1.7322701447912620e-01 0.0000000000000000e+00  9.8247544553180494e-02 -1.7640821942676674e-01 0.0000000000000000e+00  1.0147417102199072e-01 -1.7985956435037112e-01 0.0000000000000000e+00  1.0506009796360720e-01 -1.8363325183273776e-01 0.0000000000000000e+00  1.1218524986400348e-01 -1.9191434364645585e-01 0.0000000000000000e+00  1.1508024517514268e-01 -1.9601465417709490e-01 0.0000000000000000e+00  1.1734962477054962e-01 -1.9982925260683237e-01 0.0000000000000000e+00  1.1906079653982811e-01 -2.0322369556083281e-01 0.0000000000000000e+00  1.2034726820101893e-01 -2.0618504188362352e-01 0.0000000000000000e+00  1.2132418899007952e-01 -2.0876675594666400e-01 0.0000000000000000e+00  1.2207172286443180e-01 -2.1102983360871166e-01 0.0000000000000000e+00  1.2263833113064734e-01 -2.1303569200921027e-01 0.0000000000000000e+00  1.2304990679700797e-01 -2.1483170119109424e-01 0.0000000000000000e+00  1.2332450046357198e-01 -2.1644669861542323e-01 0.0000000000000000e+00  1.2347340745288220e-01 -2.1789563135619200e-01 0.0000000000000000e+00  1.2351006086002853e-01 -2.1917560299640840e-01 0.0000000000000000e+00  1.2345858837884935e-01 -2.2027675120098156e-01 0.0000000000000000e+00  1.2334725030551907e-01 -2.2118650234229592e-01 0.0000000000000000e+00  1.2323806840766052e-01 -2.2191187982472463e-01 0.0000000000000000e+00  1.1881703552247423e-01 -2.2781131863460941e-01 0.0000000000000000e+00  1.1936254046346058e-01 -2.2704068886825154e-01 0.0000000000000000e+00  1.1983265867016615e-01 -2.2627372746006383e-01 0.0000000000000000e+00  1.2021861513971961e-01 -2.2553504980150230e-01 0.0000000000000000e+00  1.2052519525268818e-01 -2.2484742194137528e-01 0.0000000000000000e+00  1.2076585350376808e-01 -2.2422841759338769e-01 0.0000000000000000e+00  1.2095958097249958e-01 -2.2369221960719810e-01 0.0000000000000000e+00  1.2112944580975703e-01 -2.2325000029651473e-01 0.0000000000000000e+00  1.2130207155742871e-01 -2.2290977159371844e-01 0.0000000000000000e+00  1.2150686095033864e-01 -2.2267515415484759e-01 0.0000000000000000e+00  1.2177684644240629e-01 -2.2254439640935725e-01 0.0000000000000000e+00  1.2214410703219207e-01 -2.2250085989084767e-01 0.0000000000000000e+00  1.2262776421842821e-01 -2.2251332911923088e-01 0.0000000000000000e+00  2.1711471295223844e-01 -5.0572805051466763e-01 0.0000000000000000e+00  2.1689046851623542e-01 -4.9869576036798846e-01 0.0000000000000000e+00  2.1664125539693113e-01 -4.9163382612263473e-01 0.0000000000000000e+00  2.1634787841011699e-01 -4.8449552947292457e-01 0.0000000000000000e+00  2.1598554776219142e-01 -4.7726261655725793e-01 0.0000000000000000e+00  2.1553640874310112e-01 -4.6993588015067073e-01 0.0000000000000000e+00  2.1498909903587726e-01 -4.6252583929326491e-01 0.0000000000000000e+00  2.1433642286394977e-01 -4.5505016027991757e-01 0.0000000000000000e+00  2.1357862470789785e-01 -4.4753009475328742e-01 0.0000000000000000e+00  2.1271965803259016e-01 -4.3998798875910405e-01 0.0000000000000000e+00  2.1176701725602809e-01 -4.3244558287026053e-01 0.0000000000000000e+00  2.1072985240265096e-01 -4.2492409161538619e-01 0.0000000000000000e+00  2.0961840568604131e-01 -4.1744338525988245e-01 0.0000000000000000e+00  2.0844245245452003e-01 -4.1002198880234458e-01 0.0000000000000000e+00  2.0721027167987580e-01 -4.0267770546172887e-01 0.0000000000000000e+00  2.0592817142099393e-01 -3.9542874393400207e-01 0.0000000000000000e+00  2.0460032175413942e-01 -3.8829372204761109e-01 0.0000000000000000e+00  2.0322809076797721e-01 -3.8129486684760261e-01 0.0000000000000000e+00  2.0181077715900711e-01 -3.7445702598223968e-01 0.0000000000000000e+00  2.0034581465591875e-01 -3.6781069493922586e-01 0.0000000000000000e+00  1.9882932359610439e-01 -3.6139477495536559e-01 0.0000000000000000e+00  1.9725655526152130e-01 -3.5526248517600223e-01 0.0000000000000000e+00  1.9562271264080039e-01 -3.4950390184200764e-01 0.0000000000000000e+00  1.9396306347713158e-01 -3.4429613743324394e-01 0.0000000000000000e+00  1.9233718660726024e-01 -3.3953001190917609e-01 0.0000000000000000e+00  1.9074658518891421e-01 -3.3508439829309022e-01 0.0000000000000000e+00  1.8918733696808562e-01 -3.3090858936608381e-01 0.0000000000000000e+00  1.8765869250215186e-01 -3.2696641731171810e-01 0.0000000000000000e+00  1.8616001749855396e-01 -3.2323048372140178e-01 0.0000000000000000e+00  1.8469292588599584e-01 -3.1967851292801513e-01 0.0000000000000000e+00  1.8325960471939406e-01 -3.1629080422228573e-01 0.0000000000000000e+00  1.8186358687651599e-01 -3.1304937844747394e-01 0.0000000000000000e+00  1.8050905034527268e-01 -3.0993701815902919e-01 0.0000000000000000e+00  1.7920044041535638e-01 -3.0693745175079934e-01 0.0000000000000000e+00  1.7794251635376576e-01 -3.0403407051428183e-01 0.0000000000000000e+00  1.7673915867680115e-01 -3.0121076325796631e-01 0.0000000000000000e+00  1.7559382123952116e-01 -2.9845202656599379e-01 0.0000000000000000e+00  1.74507889495