<?xml version="1.0"?>
<VTKFile type="UnstructuredGrid"  version="0.1"  >
<UnstructuredGrid>
<Piece  NumberOfPoints="12853" NumberOfCells="23493">
<Points>
<DataArray  type="Float64"  NumberOfComponents="3"  format="ascii">-3.187178156719634e-14 1.7 0  0 0 0  1.3 3 0  -3.185690647650846e-14 4.300000000000001 0  -3.187178156719634e-14 4.699999999999999 0  1.3 6 0  -3.185690647650846e-14 7.300000000000001 0  -3.187178156719634e-14 7.699999999999999 0  1.3 9 0  -3.185690647650846e-14 10.3 0  -3.187178156719634e-14 10.7 0  1.3 12 0  -3.185690647650846e-14 13.3 0  -3.187178156719634e-14 13.7 0  1.3 15 0  -3.185690647650846e-14 16.3 0  0 18 0  18 18 0  17.99999999999997 16.3 0  17.99999999999997 13.7 0  17.99999999999997 13.3 0  17.99999999999997 10.7 0  17.99999999999997 10.3 0  17.99999999999997 7.7 0  17.99999999999997 7.3 0  17.99999999999997 4.7 0  17.99999999999997 4.3 0  17.99999999999997 1.7 0  18 0 0  4.3 3 0  7.3 3 0  10.3 3 0  4.3 6 0  7.3 6 0  10.3 6 0  13.3 3 0  16.3 3 0  13.3 6 0  16.3 6 0  4.3 9 0  4.3 12 0  7.3 9 0  10.3 9 0  7.3 12 0  10.3 12 0  4.3 15 0  7.3 15 0  10.3 15 0  13.3 9 0  13.3 12 0  16.3 9 0  16.3 12 0  13.3 15 0  16.3 15 0  0 1.578571428571429 0  0 1.457142857142856 0  0 1.335714285714285 0  0 1.214285714285712 0  0 1.092857142857142 0  0 0.9714285714285715 0  0 0.8499999999999979 0  0 0.7285714285714278 0  0 0.6071428571428577 0  0 0.485714285714284 0  0 0.3642857142857139 0  0 0.2428571428571438 0  0 0.1214285714285701 0  0.1274222824284281 1.706259855326144 0  0.2536174186209668 1.7249791354758 0  0.3773700804308007 1.755977563548128 0  0.497488462074617 1.798956607735327 0  0.6128157578737968 1.853502356347138 0  0.7222413029254824 1.919089504006691 0  0.8247112694127393 1.995086410628442 0  0.9192388155425116 2.080761184457488 0  1.004913589371558 2.17528873058726 0  1.080910495993309 2.277758697074517 0  1.146497643652861 2.387184242126203 0  1.201043392264673 2.502511537925383 0  1.244022436451871 2.622629919569199 0  1.275020864524199 2.746382581379033 0  1.293740144673856 2.872577717571571 0  1.293740144673856 3.127422282428428 0  1.2750208645242 3.253617418620966 0  1.244022436451872 3.3773700804308 0  1.201043392264673 3.497488462074616 0  1.146497643652862 3.612815757873796 0  1.08091049599331 3.722241302925481 0  1.00491358937156 3.824711269412738 0  0.9192388155425134 3.91923881554251 0  0.8247112694127412 4.004913589371556 0  0.7222413029254846 4.080910495993308 0  0.6128157578737984 4.146497643652861 0  0.4974884620746181 4.201043392264673 0  0.3773700804308024 4.244022436451871 0  0.2536174186209674 4.275020864524199 0  0.127422282428429 4.293740144673856 0  0 4.6 0  0 4.5 0  0 4.4 0  0.1274222824284281 4.706259855326143 0  0.2536174186209668 4.724979135475801 0  0.3773700804308007 4.755977563548129 0  0.497488462074617 4.798956607735327 0  0.6128157578737968 4.853502356347138 0  0.7222413029254824 4.919089504006691 0  0.8247112694127393 4.995086410628442 0  0.9192388155425116 5.080761184457488 0  1.004913589371558 5.17528873058726 0  1.080910495993309 5.277758697074518 0  1.146497643652861 5.387184242126203 0  1.201043392264673 5.502511537925383 0  1.244022436451871 5.622629919569198 0  1.275020864524199 5.746382581379033 0  1.293740144673856 5.872577717571572 0  1.293740144673856 6.127422282428428 0  1.2750208645242 6.253617418620967 0  1.244022436451872 6.377370080430801 0  1.201043392264673 6.497488462074616 0  1.146497643652862 6.612815757873795 0  1.08091049599331 6.722241302925481 0  1.00491358937156 6.824711269412737 0  0.9192388155425134 6.91923881554251 0  0.8247112694127412 7.004913589371556 0  0.7222413029254846 7.080910495993308 0  0.6128157578737984 7.146497643652861 0  0.4974884620746181 7.201043392264673 0  0.3773700804308024 7.244022436451871 0  0.2536174186209674 7.275020864524199 0  0.127422282428429 7.293740144673856 0  0 7.6 0  0 7.5 0  0 7.4 0  0.1274222824284281 7.706259855326143 0  0.2536174186209668 7.724979135475801 0  0.3773700804308007 7.755977563548129 0  0.497488462074617 7.798956607735327 0  0.6128157578737968 7.853502356347138 0  0.7222413029254824 7.919089504006691 0  0.8247112694127393 7.995086410628442 0  0.9192388155425116 8.080761184457488 0  1.004913589371558 8.17528873058726 0  1.080910495993309 8.277758697074518 0  1.146497643652861 8.387184242126203 0  1.201043392264673 8.502511537925383 0  1.244022436451871 8.622629919569199 0  1.275020864524199 8.746382581379033 0  1.293740144673856 8.872577717571572 0  1.293740144673856 9.127422282428428 0  1.2750208645242 9.253617418620966 0  1.244022436451872 9.377370080430801 0  1.201043392264673 9.497488462074616 0  1.146497643652862 9.612815757873795 0  1.08091049599331 9.722241302925481 0  1.00491358937156 9.824711269412738 0  0.9192388155425134 9.91923881554251 0  0.8247112694127412 10.00491358937156 0  0.7222413029254846 10.08091049599331 0  0.6128157578737984 10.14649764365286 0  0.4974884620746181 10.20104339226467 0  0.3773700804308024 10.24402243645187 0  0.2536174186209674 10.2750208645242 0  0.127422282428429 10.29374014467386 0  0 10.6 0  0 10.5 0  0 10.4 0  0.1274222824284281 10.70625985532614 0  0.2536174186209668 10.7249791354758 0  0.3773700804308007 10.75597756354813 0  0.497488462074617 10.79895660773533 0  0.6128157578737968 10.85350235634714 0  0.7222413029254824 10.91908950400669 0  0.8247112694127393 10.99508641062844 0  0.9192388155425116 11.08076118445749 0  1.004913589371558 11.17528873058726 0  1.080910495993309 11.27775869707452 0  1.146497643652861 11.3871842421262 0  1.201043392264673 11.50251153792538 0  1.244022436451871 11.6226299195692 0  1.275020864524199 11.74638258137903 0  1.293740144673856 11.87257771757157 0  1.293740144673856 12.12742228242843 0  1.2750208645242 12.25361741862097 0  1.244022436451872 12.3773700804308 0  1.201043392264673 12.49748846207462 0  1.146497643652862 12.6128157578738 0  1.08091049599331 12.72224130292548 0  1.00491358937156 12.82471126941274 0  0.9192388155425134 12.91923881554251 0  0.8247112694127412 13.00491358937156 0  0.7222413029254846 13.08091049599331 0  0.6128157578737984 13.14649764365286 0  0.4974884620746181 13.20104339226467 0  0.3773700804308024 13.24402243645187 0  0.2536174186209674 13.2750208645242 0  0.127422282428429 13.29374014467386 0  0 13.6 0  0 13.5 0  0 13.4 0  0.1274222824284281 13.70625985532614 0  0.2536174186209668 13.7249791354758 0  0.3773700804308007 13.75597756354813 0  0.497488462074617 13.79895660773533 0  0.6128157578737968 13.85350235634714 0  0.7222413029254824 13.91908950400669 0  0.8247112694127393 13.99508641062844 0  0.9192388155425116 14.08076118445749 0  1.004913589371558 14.17528873058726 0  1.080910495993309 14.27775869707452 0  1.146497643652861 14.3871842421262 0  1.201043392264673 14.50251153792538 0  1.244022436451871 14.6226299195692 0  1.275020864524199 14.74638258137903 0  1.293740144673856 14.87257771757157 0  1.293740144673856 15.12742228242843 0  1.2750208645242 15.25361741862097 0  1.244022436451872 15.3773700804308 0  1.201043392264673 15.49748846207462 0  1.146497643652862 15.6128157578738 0  1.08091049599331 15.72224130292548 0  1.00491358937156 15.82471126941274 0  0.9192388155425134 15.91923881554251 0  0.8247112694127412 16.00491358937156 0  0.7222413029254846 16.08091049599331 0  0.6128157578737984 16.14649764365286 0  0.4974884620746181 16.20104339226467 0  0.3773700804308024 16.24402243645187 0  0.2536174186209674 16.2750208645242 0  0.127422282428429 16.29374014467385 0  0 17.87857142857143 0  0 17.75714285714286 0  0 17.63571428571429 0  0 17.51428571428571 0  0 17.39285714285714 0  0 17.27142857142857 0  0 17.15 0  0 17.02857142857143 0  0 16.90714285714286 0  0 16.78571428571428 0  0 16.66428571428571 0  0 16.54285714285714 0  0 16.42142857142857 0  17.8705035971223 18 0  17.7410071942446 18 0  17.61151079136691 18 0  17.48201438848921 18 0  17.35251798561151 18 0  17.22302158273381 18 0  17.09352517985612 18 0  16.96402877697842 18 0  16.83453237410072 18 0  16.70503597122302 18 0  16.57553956834532 18 0  16.44604316546762 18 0  16.31654676258993 18 0  16.18705035971223 18 0  16.05755395683453 18 0  15.92805755395683 18 0  15.79856115107913 18 0  15.66906474820144 18 0  15.53956834532374 18 0  15.41007194244604 18 0  15.28057553956834 18 0  15.15107913669064 18 0  15.02158273381295 18 0  14.89208633093525 18 0  14.76258992805755 18 0  14.63309352517985 18 0  14.50359712230215 18 0  14.37410071942446 18 0  14.24460431654676 18 0  14.11510791366906 18 0  13.98561151079136 18 0  13.85611510791366 18 0  13.72661870503597 18 0  13.59712230215827 18 0  13.46762589928057 18 0  13.33812949640287 18 0  13.20863309352517 18 0  13.07913669064748 18 0  12.94964028776977 18 0  12.82014388489208 18 0  12.69064748201438 18 0  12.56115107913668 18 0  12.43165467625898 18 0  12.30215827338128 18 0  12.17266187050359 18 0  12.04316546762589 18 0  11.91366906474819 18 0  11.78417266187049 18 0  11.65467625899279 18 0  11.52517985611509 18 0  11.3956834532374 18 0  11.2661870503597 18 0  11.136690647482 18 0  11.0071942446043 18 0  10.8776978417266 18 0  10.7482014388489 18 0  10.6187050359712 18 0  10.48920863309351 18 0  10.35971223021581 18 0  10.23021582733811 18 0  10.10071942446041 18 0  9.971223021582714 18 0  9.841726618705016 18 0  9.712230215827317 18 0  9.582733812949618 18 0  9.453237410071921 18 0  9.323741007194224 18 0  9.194244604316525 18 0  9.064748201438828 18 0  8.935251798561131 18 0  8.805755395683434 18 0  8.676258992805735 18 0  8.546762589928038 18 0  8.417266187050341 18 0  8.287769784172642 18 0  8.158273381294947 18 0  8.028776978417248 18 0  7.899280575539549 18 0  7.769784172661854 18 0  7.640287769784155 18 0  7.510791366906458 18 0  7.381294964028761 18 0  7.251798561151062 18 0  7.122302158273365 18 0  6.992805755395668 18 0  6.86330935251797 18 0  6.733812949640273 18 0  6.604316546762576 18 0  6.474820143884878 18 0  6.34532374100718 18 0  6.215827338129483 18 0  6.086330935251786 18 0  5.956834532374087 18 0  5.827338129496392 18 0  5.697
[...]
<PointData  Vectors="f_21"> 
<DataArray  type="Float64"  Name="f_21"  NumberOfComponents="3" format="ascii">-3.8120509747883942e-04 -2.8526284750453237e-04 0.0000000000000000e+00  0.0000000000000000e+00 0.0000000000000000e+00 0.0000000000000000e+00  -6.9806916972589366e-04 -2.5084377355732205e-03 0.0000000000000000e+00  -1.0523067099054287e-03 -4.4373484800047528e-03 0.0000000000000000e+00  -1.0664569458391435e-03 -4.4372989837404789e-03 0.0000000000000000e+00  -7.9267843481285261e-04 -6.2492376563404112e-03 0.0000000000000000e+00  -3.3110806880606804e-04 -7.6794758736850590e-03 0.0000000000000000e+00  -1.7217187290883087e-04 -7.6794384599046996e-03 0.0000000000000000e+00  6.8460519183768834e-04 -1.0108737123339134e-02 0.0000000000000000e+00  1.4347904283647829e-03 -1.1454433838452535e-02 0.0000000000000000e+00  1.6498944023465906e-03 -1.1454420897404336e-02 0.0000000000000000e+00  2.8392419220452858e-03 -1.4081938281952028e-02 0.0000000000000000e+00  4.2201397667914068e-03 -1.4914940830966483e-02 0.0000000000000000e+00  4.6179562346202541e-03 -1.4915084879615712e-02 0.0000000000000000e+00  6.6406174495517748e-03 -1.8273762958504653e-02 0.0000000000000000e+00  7.7155345153914305e-03 -2.1531635614817100e-02 0.0000000000000000e+00  7.1283515234940188e-03 -2.2092982941103109e-02 0.0000000000000000e+00  1.6026860726516597e-02 -4.5463977372356773e-02 0.0000000000000000e+00  8.5982945157504591e-03 -4.4881602552373785e-02 0.0000000000000000e+00  7.0071586707423604e-03 -3.0066710818838632e-02 0.0000000000000000e+00  6.9000175069829466e-03 -3.0066747987491541e-02 0.0000000000000000e+00  5.6446651859052817e-03 -2.3925036917805256e-02 0.0000000000000000e+00  5.1875134825125147e-03 -2.3924924802014153e-02 0.0000000000000000e+00  3.7733904956969914e-03 -1.5762559353978068e-02 0.0000000000000000e+00  3.5693734447531066e-03 -1.5762637671954106e-02 0.0000000000000000e+00  2.4806583958526542e-03 -8.8542706605731665e-03 0.0000000000000000e+00  2.2355832323640462e-03 -8.8543083214484754e-03 0.0000000000000000e+00  6.2782612912275096e-04 -4.9136598039621886e-04 0.0000000000000000e+00  0.0000000000000000e+00 0.0000000000000000e+00 0.0000000000000000e+00  -4.1146054769495953e-04 -2.5099907672558063e-03 0.0000000000000000e+00  -2.1518571923257428e-04 -2.5378610706185789e-03 0.0000000000000000e+00  -1.2871187568993170e-04 -2.8172577044970094e-03 0.0000000000000000e+00  -1.0566542187976558e-04 -6.4176106227710550e-03 0.0000000000000000e+00  2.9739924045196189e-04 -6.6055715800226395e-03 0.0000000000000000e+00  7.7733204663569242e-04 -7.4484234426605029e-03 0.0000000000000000e+00  7.9456274416961722e-05 -3.3841798036257039e-03 0.0000000000000000e+00  5.0750316990596166e-04 -4.2794540163125089e-03 0.0000000000000000e+00  1.1860387601079362e-03 -9.1227271854436957e-03 0.0000000000000000e+00  2.2550021148368075e-03 -1.1413369395964469e-02 0.0000000000000000e+00  1.1936583432194607e-03 -1.0398654336028020e-02 0.0000000000000000e+00  3.5845688105733478e-03 -1.4355303299272537e-02 0.0000000000000000e+00  1.7675919113942437e-03 -1.0660151597191143e-02 0.0000000000000000e+00  2.0937454490308509e-03 -1.2061404954401653e-02 0.0000000000000000e+00  3.8064885303223319e-03 -1.4614524557834000e-02 0.0000000000000000e+00  4.2797578267254879e-03 -1.6552388878883321e-02 0.0000000000000000e+00  6.9561900563148349e-03 -1.8285510914564259e-02 0.0000000000000000e+00  7.3171235285948866e-03 -1.8320262338128331e-02 0.0000000000000000e+00  6.9612923627721908e-03 -2.0799162515329983e-02 0.0000000000000000e+00  2.8466006254018782e-03 -1.4756561190470245e-02 0.0000000000000000e+00  4.1834617434749078e-03 -2.0347988938090561e-02 0.0000000000000000e+00  3.3264812900248636e-03 -1.8558931621059965e-02 0.0000000000000000e+00  5.8336742935646514e-03 -2.5907033439004117e-02 0.0000000000000000e+00  7.2142061495770382e-03 -2.5418145047328956e-02 0.0000000000000000e+00  5.1890008379914046e-03 -3.3783478456269812e-02 0.0000000000000000e+00  -3.9280281787545317e-04 -2.8592462450556083e-04 0.0000000000000000e+00  -4.0121488760814556e-04 -2.8833475362807055e-04 0.0000000000000000e+00  -4.0297939588350830e-04 -2.9025774445186326e-04 0.0000000000000000e+00  -3.9743624433967055e-04 -2.8990890067242143e-04 0.0000000000000000e+00  -3.8498930107079543e-04 -2.8608112205919032e-04 0.0000000000000000e+00  -3.6633923578768612e-04 -2.7825009287758617e-04 0.0000000000000000e+00  -3.4209842716951877e-04 -2.6625130124781403e-04 0.0000000000000000e+00  -3.1272394745738717e-04 -2.4997234667994668e-04 0.0000000000000000e+00  -2.7843701798571776e-04 -2.2927207153791460e-04 0.0000000000000000e+00  -2.3921434834982044e-04 -2.0379684316517137e-04 0.0000000000000000e+00  -1.9473380958227686e-04 -1.7281433235619137e-04 0.0000000000000000e+00  -1.4420521941512019e-04 -1.3471454836938907e-04 0.0000000000000000e+00  -8.4427506955428872e-05 -8.5652073703549976e-05 0.0000000000000000e+00  -3.7973994200213616e-04 -2.9703845266058383e-04 0.0000000000000000e+00  -3.7442344975186637e-04 -3.1334910632864211e-04 0.0000000000000000e+00  -3.6679379383116321e-04 -3.4064860672020401e-04 0.0000000000000000e+00  -3.5983741930870945e-04 -3.8276374903156978e-04 0.0000000000000000e+00  -3.5513295882773615e-04 -4.4150372863922219e-04 0.0000000000000000e+00  -3.5462372701813833e-04 -5.1816462887579020e-04 0.0000000000000000e+00  -3.5975285687054568e-04 -6.1343628504795039e-04 0.0000000000000000e+00  -3.7139218234206886e-04 -7.2812268341534557e-04 0.0000000000000000e+00  -3.9036951807249116e-04 -8.6318646373505768e-04 0.0000000000000000e+00  -4.1677234957120433e-04 -1.0201690344937653e-03 0.0000000000000000e+00  -4.5041001132619518e-04 -1.2013451517555291e-03 0.0000000000000000e+00  -4.9062733992453252e-04 -1.4092585122200496e-03 0.0000000000000000e+00  -5.3660586181226327e-04 -1.6466841014886311e-03 0.0000000000000000e+00  -5.8766187420510572e-04 -1.9136210802630316e-03 0.0000000000000000e+00  -6.4253164789359587e-04 -2.2041295524584197e-03 0.0000000000000000e+00  -7.4842921452896360e-04 -2.8088408332923023e-03 0.0000000000000000e+00  -7.8901178920198452e-04 -3.0915430562009154e-03 0.0000000000000000e+00  -8.1779352248103146e-04 -3.3488239196804996e-03 0.0000000000000000e+00  -8.3705573879308060e-04 -3.5780491661546003e-03 0.0000000000000000e+00  -8.5282917365215108e-04 -3.7802742443014911e-03 0.0000000000000000e+00  -8.7104717082418987e-04 -3.9562594690111330e-03 0.0000000000000000e+00  -8.9547044832895045e-04 -4.1049887627798865e-03 0.0000000000000000e+00  -9.2613895835369432e-04 -4.2244272590054891e-03 0.0000000000000000e+00  -9.6044981325106799e-04 -4.3131225842982608e-03 0.0000000000000000e+00  -9.9342697441455420e-04 -4.3718879522423133e-03 0.0000000000000000e+00  -1.0201980090006123e-03 -4.4050946456686713e-03 0.0000000000000000e+00  -1.0379448416574944e-03 -4.4203853319911236e-03 0.0000000000000000e+00  -1.0473465512654792e-03 -4.4262419822921522e-03 0.0000000000000000e+00  -1.0510528114159058e-03 -4.4295749845442234e-03 0.0000000000000000e+00  -1.0521243071317976e-03 -4.4331679963720829e-03 0.0000000000000000e+00  -1.0627694332925432e-03 -4.4372927773244442e-03 0.0000000000000000e+00  -1.0591979074553203e-03 -4.4373240430014517e-03 0.0000000000000000e+00  -1.0556935204120979e-03 -4.4373548968645081e-03 0.0000000000000000e+00  -1.0667160937172569e-03 -4.4324649707799431e-03 0.0000000000000000e+00  -1.0669720057596757e-03 -4.4271292637310432e-03 0.0000000000000000e+00  -1.0654447150878063e-03 -4.4216522550278642e-03 0.0000000000000000e+00  -1.0591685821793140e-03 -4.4191269757077488e-03 0.0000000000000000e+00  -1.0450787400044404e-03 -4.4261040138835429e-03 0.0000000000000000e+00  -1.0231738831866389e-03 -4.4517487835503316e-03 0.0000000000000000e+00  -9.9555199918069121e-04 -4.5032066569884194e-03 0.0000000000000000e+00  -9.6744840044636073e-04 -4.5853261273426909e-03 0.0000000000000000e+00  -9.4362177100855437e-04 -4.6988032760354563e-03 0.0000000000000000e+00  -9.2699811411308352e-04 -4.8421003956400461e-03 0.0000000000000000e+00  -9.1734901469917192e-04 -5.0131131116774603e-03 0.0000000000000000e+00  -9.1060070511154772e-04 -5.2101444703139431e-03 0.0000000000000000e+00  -9.0043228996240776e-04 -5.4340444004465152e-03 0.0000000000000000e+00  -8.7957656965760133e-04 -5.6844111962416162e-03 0.0000000000000000e+00  -8.4374916084918388e-04 -5.9592889038101319e-03 0.0000000000000000e+00  -7.2949345869210926e-04 -6.5401440888801787e-03 0.0000000000000000e+00  -6.5933045882228872e-04 -6.8159831106452328e-03 0.0000000000000000e+00  -5.8718646964758283e-04 -7.0668321379716448e-03 0.0000000000000000e+00  -5.1861971806295057e-04 -7.2872716168609413e-03 0.0000000000000000e+00  -4.5928860068027822e-04 -7.4771257479988879e-03 0.0000000000000000e+00  -4.1399441842799017e-04 -7.6356370056162989e-03 0.0000000000000000e+00  -3.8472624259319792e-04 -7.7610262390432816e-03 0.0000000000000000e+00  -3.6983436195311980e-04 -7.8511278337039178e-03 0.0000000000000000e+00  -3.6539946630336433e-04 -7.9046723704377479e-03 0.0000000000000000e+00  -3.6539884941169573e-04 -7.9229206610570580e-03 0.0000000000000000e+00  -3.6430645565998051e-04 -7.9109863549630798e-03 0.0000000000000000e+00  -3.5900750442101939e-04 -7.8774174034537247e-03 0.0000000000000000e+00  -3.5018698044486727e-04 -7.8316387922330050e-03 0.0000000000000000e+00  -3.4063505819540877e-04 -7.7814741913816475e-03 0.0000000000000000e+00  -3.3364223619930267e-04 -7.7304421269623067e-03 0.0000000000000000e+00  -2.1175711541706875e-04 -7.6794255080113501e-03 0.0000000000000000e+00  -2.5146068203037880e-04 -7.6794575819984683e-03 0.0000000000000000e+00  -2.9122436057127371e-04 -7.6794891880139398e-03 0.0000000000000000e+00  -1.6972973115197328e-04 -7.7297331986328020e-03 0.0000000000000000e+00  -1.6185023973415289e-04 -7.7789869927864354e-03 0.0000000000000000e+00  -1.4675312380499469e-04 -7.8271132442714452e-03 0.0000000000000000e+00  -1.2155257763479798e-04 -7.8769068278146202e-03 0.0000000000000000e+00  -8.3414943644357544e-05 -7.9347033982993930e-03 0.0000000000000000e+00  -3.2821113119848893e-05 -8.0093558155936197e-03 0.0000000000000000e+00  2.7601693081512723e-05 -8.1074242004859076e-03 0.0000000000000000e+00  9.2224809151218688e-05 -8.2329808383883474e-03 0.0000000000000000e+00  1.5623370223560160e-04 -8.3859918447979475e-03 0.0000000000000000e+00  2.1691615875720039e-04 -8.5644812229543656e-03 0.0000000000000000e+00  2.7481139396902843e-04 -8.7662835091005809e-03 0.0000000000000000e+00  3.3405179623480842e-04 -8.9901505261483061e-03 0.0000000000000000e+00  4.0060912876615850e-04 -9.2374488626350611e-03 0.0000000000000000e+00  4.8046287190148360e-04 -9.5084760605474022e-03 0.0000000000000000e+00  5.7602222955077827e-04 -9.8018932636024202e-03 0.0000000000000000e+00  7.9999683875633910e-04 -1.0414898403530895e-02 0.0000000000000000e+00  9.1493250172686332e-04 -1.0703040316565736e-02 0.0000000000000000e+00  1.0242547624034529e-03 -1.0963631799515020e-02 0.0000000000000000e+00  1.1233989541349298e-03 -1.1190888881630071e-02 0.0000000000000000e+00  1.2073509621073131e-03 -1.1383783858367653e-02 0.0000000000000000e+00  1.2725837004148490e-03 -1.1542349543695417e-02 0.0000000000000000e+00  1.3180567084141910e-03 -1.1664488923197061e-02 0.0000000000000000e+00  1.3460988407621168e-03 -1.1748070808861316e-02 0.0000000000000000e+00  1.3617978653314735e-03 -1.1792014788148916e-02 0.0000000000000000e+00  1.3714506389213912e-03 -1.1798041443688102e-02 0.0000000000000000e+00  1.3807886148811588e-03 -1.1771645126412236e-02 0.0000000000000000e+00  1.3933028672821139e-03 -1.1722266815754286e-02 0.0000000000000000e+00  1.4079089636882809e-03 -1.1659702702230372e-02 0.0000000000000000e+00  1.4217450852439754e-03 -1.1592078952734508e-02 0.0000000000000000e+00  1.4313685566659546e-03 -1.1523301002770365e-02 0.0000000000000000e+00  1.5962714248006968e-03 -1.1454401426409681e-02 0.0000000000000000e+00  1.5425269598234839e-03 -1.1454428029650004e-02 0.0000000000000000e+00  1.4887198341002050e-03 -1.1454453821087883e-02 0.0000000000000000e+00  1.6532064159828321e-03 -1.1522600011445712e-02 0.0000000000000000e+00  1.6637180839134394e-03 -1.1589553826703684e-02 0.0000000000000000e+00  1.6832217699870797e-03 -1.1655025668657512e-02 0.0000000000000000e+00  1.7146513926187198e-03 -1.1721724591580645e-02 0.0000000000000000e+00  1.7608861476939392e-03 -1.1795935930101264e-02 0.0000000000000000e+00  1.8214490930571667e-03 -1.1886545725802273e-02 0.0000000000000000e+00  1.8935449051206415e-03 -1.2000083497853215e-02 0.0000000000000000e+00  1.9715666092814639e-03 -1.2140210670537983e-02 0.0000000000000000e+00  2.0511775145538318e-03 -1.2306530386006279e-02 0.0000000000000000e+00  2.1302524183074855e-03 -1.2496946609992314e-02 0.0000000000000000e+00  2.2104527731464721e-03 -1.2708967130366561e-02 0.0000000000000000e+00  2.2971729443426675e-03 -1.2941769257013682e-02 0.0000000000000000e+00  2.3982642933908487e-03 -1.3196159806456160e-02 0.0000000000000000e+00  2.5211278153780075e-03 -1.3473097463099848e-02 0.0000000000000000e+00  2.6692563730117496e-03 -1.3771243809312512e-02 0.0000000000000000e+00  3.0219827983945006e-03 -1.4390769116586695e-02 0.0000000000000000e+00  3.2060795128139724e-03 -1.4679323737171082e-02 0.0000000000000000e+00  3.3828682109498577e-03 -1.4936933197187164e-02 0.0000000000000000e+00  3.5453377876611758e-03 -1.5156650570234664e-02 0.0000000000000000e+00  3.6870767483088325e-03 -1.5336543555137933e-02 0.0000000000000000e+00  3.8041067356834736e-03 -1.5475978942426234e-02 0.0000000000000000e+00  3.8955911785856076e-03 -1.5572220827533833e-02 0.0000000000000000e+00  3.9645127129753835e-03 -1.5622986114703067e-02 0.0000000000000000e+00  4.0166732866128438e-03 -1.5627555795477949e-02 0.0000000000000000e+00  4.0588109044376770e-03 -1.5588531489916036e-02 0.0000000000000000e+00  4.0966967381683627e-03 -1.5512594370296168e-02 0.0000000000000000e+00  4.1334818699551214e-03 -1.5410410805905916e-02 0.0000000000000000e+00  4.1675491809916683e-03 -1.5292757564276225e-02 0.0000000000000000e+00  4.1955716083512595e-03 -1.5168482808181581e-02 0.0000000000000000e+00  4.2138084374353140e-03 -1.5042023808387190e-02 0.0000000000000000e+00  4.5186673951569936e-03 -1.4915028959216143e-02 0.0000000000000000e+00  4.4192510796506289e-03 -1.4915013626089666e-02 0.0000000000000000e+00  4.3197595563391911e-03 -1.4914997431897422e-02 0.0000000000000000e+00  4.6240780029872504e-03 -1.5041456439180506e-02 0.0000000000000000e+00  4.6430782564065290e-03 -1.5166017738049539e-02 0.0000000000000000e+00  4.6767080433241766e-03 -1.5287898886638155e-02 0.0000000000000000e+00  4.7278967570766267e-03 -1.5409234628315649e-02 0.0000000000000000e+00  4.7995522472127784e-03 -1.5535840479345420e-02 0.0000000000000000e+00  4.8912723005162875e-03 -1.5676210628698013e-02 0.0000000000000000e+00  5.0004144941129510e-03 -1.5836461958441725e-02 0.0000000000000000e+00  5.1218039628150502e-03 -1.6019828913774969e-02 0.0000000000000000e+00  5.2519650995219306e-03 -1.6225600557789072e-02 0.0000000000000000e+00  5.3901180558018815e-03 -1.6451731847699665e-02 0.0000000000000000e+00  5.5395485177231838e-03 -1.6696459860504942e-02 0.0000000000000000e+00  5.7071246469514014e-03 -1.6960393954740614e-02 0.0000000000000000e+00  5.9009707677961229e-03 -1.7246949924052821e-02 0.0000000000000000e+00  6.1258450577912045e-03 -1.7560938879528934e-02 0.0000000000000000e+00  6.3780295363044066e-03 -1.7905038882086673e-02 0.0000000000000000e+00  6.8895555301249434e-03 -1.8653630381118523e-02 0.0000000000000000e+00  7.1038985388250046e-03 -1.9022488331994571e-02 0.0000000000000000e+00  7.2760561189167874e-03 -1.9366193412263071e-02 0.0000000000000000e+00  7.4088659667613729e-03 -1.9674145731236672e-02 0.0000000000000000e+00  7.5104573324719891e-03 -1.9945426178678401e-02 0.0000000000000000e+00  7.5883456510398946e-03 -2.0184512467703523e-02 0.0000000000000000e+00  7.6479433832630627e-03 -2.0396518953506200e-02 0.0000000000000000e+00  7.6926157591031396e-03 -2.0586603863574353e-02 0.0000000000000000e+00  7.7241776465098635e-03 -2.0758720606390356e-02 0.0000000000000000e+00  7.7439893261930575e-03 -2.0915222525825627e-02 0.0000000000000000e+00  7.7529873364438878e-03 -2.1057235259306546e-02 0.0000000000000000e+00  7.7523702000748020e-03 -2.1184280469938015e-02 0.0000000000000000e+00  7.7443838561577424e-03 -2.1295255695999851e-02 0.0000000000000000e+00  7.7316947485466933e-03 -2.1388828644018275e-02 0.0000000000000000e+00  7.7200800509671106e-03 -2.1465488730214262e-02 0.0000000000000000e+00  7.1912016554601639e-03 -2.2022980694224290e-02 0.0000000000000000e+00  7.2505304537172268e-03 -2.1951540470267351e-02 0.0000000000000000e+00  7.3031551309031099e-03 -2.1880408643962915e-02 0.0000000000000000e+00  7.3481268040868613e-03 -2.1811859590034972e-02 0.0000000000000000e+00  7.3858171997285343e-03 -2.1748003324086603e-02 0.0000000000000000e+00  7.4174256961878496e-03 -2.1690475347497101e-02 0.0000000000000000e+00  7.4446777706700480e-03 -2.1640598635197451e-02 0.0000000000000000e+00  7.4696846564712973e-03 -2.1599418741939276e-02 0.0000000000000000e+00  7.4948923537163665e-03 -2.1567692222711134e-02 0.0000000000000000e+00  7.5230110702108836e-03 -2.1545769802094099e-02 0.0000000000000000e+00  7.5570946895763590e-03 -2.1533515169093645e-02 0.0000000000000000e+00  7.6001285551118248e-03 -2.1529417253696212e-02 0.0000000000000000e+00  7.6539250042383395e-03 -2.1530606459675101e-02 0.0000000000000000e+00  1.5996180816443124e-02 -4.4932684367761828e-02 0.0000000000000000e+00  1.5963945613096105e-02 -4.4400020328315491e-02 0.0000000000000000e+00  1.5929541193145023e-02 -4.3860973445704145e-02 0.0000000000000000e+00  1.5891486297366943e-02 -4.3312873241064344e-02 0.0000000000000000e+00  1.5847896406001271e-02 -4.2754753179648719e-02 0.0000000000000000e+00  1.5797541378686379e-02 -4.2186929602431457e-02 0.0000000000000000e+00  1.5739738913987732e-02 -4.1610391769238905e-02 0.0000000000000000e+00  1.5674188137724896e-02 -4.1026613752149117e-02 0.0000000000000000e+00  1.5601189289721321e-02 -4.0437276982026073e-02 0.0000000000000000e+00  1.5521325390121037e-02 -3.9844079413639599e-02 0.0000000000000000e+00  1.5435430026362378e-02 -3.9248615168792939e-02 0.0000000000000000e+00  1.5344417050257032e-02 -3.8652380363855682e-02 0.0000000000000000e+00  1.5249217857110279e-02 -3.8056732542588061e-02 0.0000000000000000e+00  1.5150640095498784e-02 -3.7462910021165981e-02 0.0000000000000000e+00  1.5049287034142904e-02 -3.6872110538156158e-02 0.0000000000000000e+00  1.4945483270262034e-02 -3.6285601270932714e-02 0.0000000000000000e+00  1.4839363092869819e-02 -3.5704762557232574e-02 0.0000000000000000e+00  1.4730649700657702e-02 -3.5131367088222426e-02 0.0000000000000000e+00  1.4618925739154217e-02 -3.4567518521316301e-02 0.0000000000000000e+00  1.4503536731137813e-02 -3.4015955195490589e-02 0.0000000000000000e+00  1.4383700817955676e-02 -3.3480296882380980e-02 0.0000000000000000e+00  1.4258561208176822e-02 -3.2965606060561675e-02 0.0000000000000000e+00  1.4127270668641416e-02 -3.2480520328589689e-02 0.0000000000000000e+00  1.3992901080647368e-02 -3.2041924397848559e-02 0.0000000000000000e+00  1.3860887975473059e-02 -3.1639910614636391e-02 0.0000000000000000e+00  1.3731187750989540e-02 -3.1263494969596510e-02 0.0000000000000000e+00  1.3603272151790576e-02 -3.0908337709100182e-02 0.0000000000000000e+00  1.3476982122919805e-02 -3.0571488835237508e-02 0.0000000000000000e+00  1.3352245105654597e-02 -3.0250820401026054e-02 0.0000000000000000e+00  1.3229228054702714e-02 -2.9944650809036813e-02 0.0000000000000000e+00  1.3108214738649435e-02 -2.9651508562010095e-02 0.0000000000000000e+00  1.2989633873717465e-02 -2.9370030629981624e-02 0.0000000000000000e+00  1.2874009481093043e-02 -2.9098876029013138e-02 0.0000000000000000e+00  1.2761864647066207e-02 -2.8836724957708365e-02 0.0000000000000000e+00  1.2653775302302196e-02 -2.8582183632501933e-02 0.0000000000000000e+00  1.2550224343848190e-02 -2.8333855354883100e-02 0.0000000000000000e+00  1.2451610632213153e-02 -2.8090360080908976e-02 0.00000000000