<?xml version="1.0"?>
<VTKFile type="UnstructuredGrid"  version="0.1"  >
<UnstructuredGrid>
<Piece  NumberOfPoints="12853" NumberOfCells="23493">
<Points>
<DataArray  type="Float64"  NumberOfComponents="3"  format="ascii">-3.187178156719634e-14 1.7 0  0 0 0  1.3 3 0  -3.185690647650846e-14 4.300000000000001 0  -3.187178156719634e-14 4.699999999999999 0  1.3 6 0  -3.185690647650846e-14 7.300000000000001 0  -3.187178156719634e-14 7.699999999999999 0  1.3 9 0  -3.185690647650846e-14 10.3 0  -3.187178156719634e-14 10.7 0  1.3 12 0  -3.185690647650846e-14 13.3 0  -3.187178156719634e-14 13.7 0  1.3 15 0  -3.185690647650846e-14 16.3 0  0 18 0  18 18 0  17.99999999999997 16.3 0  17.99999999999997 13.7 0  17.99999999999997 13.3 0  17.99999999999997 10.7 0  17.99999999999997 10.3 0  17.99999999999997 7.7 0  17.99999999999997 7.3 0  17.99999999999997 4.7 0  17.99999999999997 4.3 0  17.99999999999997 1.7 0  18 0 0  4.3 3 0  7.3 3 0  10.3 3 0  4.3 6 0  7.3 6 0  10.3 6 0  13.3 3 0  16.3 3 0  13.3 6 0  16.3 6 0  4.3 9 0  4.3 12 0  7.3 9 0  10.3 9 0  7.3 12 0  10.3 12 0  4.3 15 0  7.3 15 0  10.3 15 0  13.3 9 0  13.3 12 0  16.3 9 0  16.3 12 0  13.3 15 0  16.3 15 0  0 1.578571428571429 0  0 1.457142857142856 0  0 1.335714285714285 0  0 1.214285714285712 0  0 1.092857142857142 0  0 0.9714285714285715 0  0 0.8499999999999979 0  0 0.7285714285714278 0  0 0.6071428571428577 0  0 0.485714285714284 0  0 0.3642857142857139 0  0 0.2428571428571438 0  0 0.1214285714285701 0  0.1274222824284281 1.706259855326144 0  0.2536174186209668 1.7249791354758 0  0.3773700804308007 1.755977563548128 0  0.497488462074617 1.798956607735327 0  0.6128157578737968 1.853502356347138 0  0.7222413029254824 1.919089504006691 0  0.8247112694127393 1.995086410628442 0  0.9192388155425116 2.080761184457488 0  1.004913589371558 2.17528873058726 0  1.080910495993309 2.277758697074517 0  1.146497643652861 2.387184242126203 0  1.201043392264673 2.502511537925383 0  1.244022436451871 2.622629919569199 0  1.275020864524199 2.746382581379033 0  1.293740144673856 2.872577717571571 0  1.293740144673856 3.127422282428428 0  1.2750208645242 3.253617418620966 0  1.244022436451872 3.3773700804308 0  1.201043392264673 3.497488462074616 0  1.146497643652862 3.612815757873796 0  1.08091049599331 3.722241302925481 0  1.00491358937156 3.824711269412738 0  0.9192388155425134 3.91923881554251 0  0.8247112694127412 4.004913589371556 0  0.7222413029254846 4.080910495993308 0  0.6128157578737984 4.146497643652861 0  0.4974884620746181 4.201043392264673 0  0.3773700804308024 4.244022436451871 0  0.2536174186209674 4.275020864524199 0  0.127422282428429 4.293740144673856 0  0 4.6 0  0 4.5 0  0 4.4 0  0.1274222824284281 4.706259855326143 0  0.2536174186209668 4.724979135475801 0  0.3773700804308007 4.755977563548129 0  0.497488462074617 4.798956607735327 0  0.6128157578737968 4.853502356347138 0  0.7222413029254824 4.919089504006691 0  0.8247112694127393 4.995086410628442 0  0.9192388155425116 5.080761184457488 0  1.004913589371558 5.17528873058726 0  1.080910495993309 5.277758697074518 0  1.146497643652861 5.387184242126203 0  1.201043392264673 5.502511537925383 0  1.244022436451871 5.622629919569198 0  1.275020864524199 5.746382581379033 0  1.293740144673856 5.872577717571572 0  1.293740144673856 6.127422282428428 0  1.2750208645242 6.253617418620967 0  1.244022436451872 6.377370080430801 0  1.201043392264673 6.497488462074616 0  1.146497643652862 6.612815757873795 0  1.08091049599331 6.722241302925481 0  1.00491358937156 6.824711269412737 0  0.9192388155425134 6.91923881554251 0  0.8247112694127412 7.004913589371556 0  0.7222413029254846 7.080910495993308 0  0.6128157578737984 7.146497643652861 0  0.4974884620746181 7.201043392264673 0  0.3773700804308024 7.244022436451871 0  0.2536174186209674 7.275020864524199 0  0.127422282428429 7.293740144673856 0  0 7.6 0  0 7.5 0  0 7.4 0  0.1274222824284281 7.706259855326143 0  0.2536174186209668 7.724979135475801 0  0.3773700804308007 7.755977563548129 0  0.497488462074617 7.798956607735327 0  0.6128157578737968 7.853502356347138 0  0.7222413029254824 7.919089504006691 0  0.8247112694127393 7.995086410628442 0  0.9192388155425116 8.080761184457488 0  1.004913589371558 8.17528873058726 0  1.080910495993309 8.277758697074518 0  1.146497643652861 8.387184242126203 0  1.201043392264673 8.502511537925383 0  1.244022436451871 8.622629919569199 0  1.275020864524199 8.746382581379033 0  1.293740144673856 8.872577717571572 0  1.293740144673856 9.127422282428428 0  1.2750208645242 9.253617418620966 0  1.244022436451872 9.377370080430801 0  1.201043392264673 9.497488462074616 0  1.146497643652862 9.612815757873795 0  1.08091049599331 9.722241302925481 0  1.00491358937156 9.824711269412738 0  0.9192388155425134 9.91923881554251 0  0.8247112694127412 10.00491358937156 0  0.7222413029254846 10.08091049599331 0  0.6128157578737984 10.14649764365286 0  0.4974884620746181 10.20104339226467 0  0.3773700804308024 10.24402243645187 0  0.2536174186209674 10.2750208645242 0  0.127422282428429 10.29374014467386 0  0 10.6 0  0 10.5 0  0 10.4 0  0.1274222824284281 10.70625985532614 0  0.2536174186209668 10.7249791354758 0  0.3773700804308007 10.75597756354813 0  0.497488462074617 10.79895660773533 0  0.6128157578737968 10.85350235634714 0  0.7222413029254824 10.91908950400669 0  0.8247112694127393 10.99508641062844 0  0.9192388155425116 11.08076118445749 0  1.004913589371558 11.17528873058726 0  1.080910495993309 11.27775869707452 0  1.146497643652861 11.3871842421262 0  1.201043392264673 11.50251153792538 0  1.244022436451871 11.6226299195692 0  1.275020864524199 11.74638258137903 0  1.293740144673856 11.87257771757157 0  1.293740144673856 12.12742228242843 0  1.2750208645242 12.25361741862097 0  1.244022436451872 12.3773700804308 0  1.201043392264673 12.49748846207462 0  1.146497643652862 12.6128157578738 0  1.08091049599331 12.72224130292548 0  1.00491358937156 12.82471126941274 0  0.9192388155425134 12.91923881554251 0  0.8247112694127412 13.00491358937156 0  0.7222413029254846 13.08091049599331 0  0.6128157578737984 13.14649764365286 0  0.4974884620746181 13.20104339226467 0  0.3773700804308024 13.24402243645187 0  0.2536174186209674 13.2750208645242 0  0.127422282428429 13.29374014467386 0  0 13.6 0  0 13.5 0  0 13.4 0  0.1274222824284281 13.70625985532614 0  0.2536174186209668 13.7249791354758 0  0.3773700804308007 13.75597756354813 0  0.497488462074617 13.79895660773533 0  0.6128157578737968 13.85350235634714 0  0.7222413029254824 13.91908950400669 0  0.8247112694127393 13.99508641062844 0  0.9192388155425116 14.08076118445749 0  1.004913589371558 14.17528873058726 0  1.080910495993309 14.27775869707452 0  1.146497643652861 14.3871842421262 0  1.201043392264673 14.50251153792538 0  1.244022436451871 14.6226299195692 0  1.275020864524199 14.74638258137903 0  1.293740144673856 14.87257771757157 0  1.293740144673856 15.12742228242843 0  1.2750208645242 15.25361741862097 0  1.244022436451872 15.3773700804308 0  1.201043392264673 15.49748846207462 0  1.146497643652862 15.6128157578738 0  1.08091049599331 15.72224130292548 0  1.00491358937156 15.82471126941274 0  0.9192388155425134 15.91923881554251 0  0.8247112694127412 16.00491358937156 0  0.7222413029254846 16.08091049599331 0  0.6128157578737984 16.14649764365286 0  0.4974884620746181 16.20104339226467 0  0.3773700804308024 16.24402243645187 0  0.2536174186209674 16.2750208645242 0  0.127422282428429 16.29374014467385 0  0 17.87857142857143 0  0 17.75714285714286 0  0 17.63571428571429 0  0 17.51428571428571 0  0 17.39285714285714 0  0 17.27142857142857 0  0 17.15 0  0 17.02857142857143 0  0 16.90714285714286 0  0 16.78571428571428 0  0 16.66428571428571 0  0 16.54285714285714 0  0 16.42142857142857 0  17.8705035971223 18 0  17.7410071942446 18 0  17.61151079136691 18 0  17.48201438848921 18 0  17.35251798561151 18 0  17.22302158273381 18 0  17.09352517985612 18 0  16.96402877697842 18 0  16.83453237410072 18 0  16.70503597122302 18 0  16.57553956834532 18 0  16.44604316546762 18 0  16.31654676258993 18 0  16.18705035971223 18 0  16.05755395683453 18 0  15.92805755395683 18 0  15.79856115107913 18 0  15.66906474820144 18 0  15.53956834532374 18 0  15.41007194244604 18 0  15.28057553956834 18 0  15.15107913669064 18 0  15.02158273381295 18 0  14.89208633093525 18 0  14.76258992805755 18 0  14.63309352517985 18 0  14.50359712230215 18 0  14.37410071942446 18 0  14.24460431654676 18 0  14.11510791366906 18 0  13.98561151079136 18 0  13.85611510791366 18 0  13.72661870503597 18 0  13.59712230215827 18 0  13.46762589928057 18 0  13.33812949640287 18 0  13.20863309352517 18 0  13.07913669064748 18 0  12.94964028776977 18 0  12.82014388489208 18 0  12.69064748201438 18 0  12.56115107913668 18 0  12.43165467625898 18 0  12.30215827338128 18 0  12.17266187050359 18 0  12.04316546762589 18 0  11.91366906474819 18 0  11.78417266187049 18 0  11.65467625899279 18 0  11.52517985611509 18 0  11.3956834532374 18 0  11.2661870503597 18 0  11.136690647482 18 0  11.0071942446043 18 0  10.8776978417266 18 0  10.7482014388489 18 0  10.6187050359712 18 0  10.48920863309351 18 0  10.35971223021581 18 0  10.23021582733811 18 0  10.10071942446041 18 0  9.971223021582714 18 0  9.841726618705016 18 0  9.712230215827317 18 0  9.582733812949618 18 0  9.453237410071921 18 0  9.323741007194224 18 0  9.194244604316525 18 0  9.064748201438828 18 0  8.935251798561131 18 0  8.805755395683434 18 0  8.676258992805735 18 0  8.546762589928038 18 0  8.417266187050341 18 0  8.287769784172642 18 0  8.158273381294947 18 0  8.028776978417248 18 0  7.899280575539549 18 0  7.769784172661854 18 0  7.640287769784155 18 0  7.510791366906458 18 0  7.381294964028761 18 0  7.251798561151062 18 0  7.122302158273365 18 0  6.992805755395668 18 0  6.86330935251797 18 0  6.733812949640273 18 0  6.604316546762576 18 0  6.474820143884878 18 0  6.34532374100718 18 0  6.215827338129483 18 0  6.086330935251786 18 0  5.956834532374087 18 0  5.827338129496392 18 0  5.697
[...]
<PointData  Vectors="f_21"> 
<DataArray  type="Float64"  Name="f_21"  NumberOfComponents="3" format="ascii">-2.2279486720775191e-03 -1.6654424326389106e-03 0.0000000000000000e+00  0.0000000000000000e+00 0.0000000000000000e+00 0.0000000000000000e+00  -3.9681155186714282e-03 -1.4641870122139786e-02 0.0000000000000000e+00  -5.7464760774775117e-03 -2.5641421173011950e-02 0.0000000000000000e+00  -5.7465117290498493e-03 -2.5641139691755306e-02 0.0000000000000000e+00  -3.6800819934502990e-03 -3.6428615304849171e-02 0.0000000000000000e+00  -6.3727807437168133e-05 -4.4014043958568637e-02 0.0000000000000000e+00  1.1181091156187539e-03 -4.4015398025040793e-02 0.0000000000000000e+00  7.1967715568797283e-03 -5.9032514686211103e-02 0.0000000000000000e+00  1.2576602773297675e-02 -6.6356632889849054e-02 0.0000000000000000e+00  1.4061265770393971e-02 -6.6358979693640824e-02 0.0000000000000000e+00  2.2133923390724074e-02 -8.2441145552254985e-02 0.0000000000000000e+00  3.1954232022336174e-02 -8.6054797538299935e-02 0.0000000000000000e+00  3.4744150502791268e-02 -8.6064230023897972e-02 0.0000000000000000e+00  4.8513822339430523e-02 -1.0740697484929640e-01 0.0000000000000000e+00  5.5671902384346765e-02 -1.2692442414357052e-01 0.0000000000000000e+00  5.2439515101146257e-02 -1.3029670515698014e-01 0.0000000000000000e+00  1.0672011975635599e-01 -2.7842720491432982e-01 0.0000000000000000e+00  5.8278642521742988e-02 -2.7421913583967938e-01 0.0000000000000000e+00  4.8052391053385990e-02 -1.8083787360717204e-01 0.0000000000000000e+00  4.7657564893371716e-02 -1.8083790743232478e-01 0.0000000000000000e+00  3.8288600900048791e-02 -1.4759543421674365e-01 0.0000000000000000e+00  3.4794072395363078e-02 -1.4758105713520064e-01 0.0000000000000000e+00  2.4485806129786580e-02 -9.5426327581773288e-02 0.0000000000000000e+00  2.3270974357604710e-02 -9.5425211863490303e-02 0.0000000000000000e+00  1.5816757973296798e-02 -5.4629372430491964e-02 0.0000000000000000e+00  1.4086466321754698e-02 -5.4626292155661796e-02 0.0000000000000000e+00  3.7781107304106568e-03 -2.9658869153316204e-03 0.0000000000000000e+00  0.0000000000000000e+00 0.0000000000000000e+00 0.0000000000000000e+00  -2.2880073679736063e-03 -1.4804930184286908e-02 0.0000000000000000e+00  -1.0201427596053282e-03 -1.4959736070728319e-02 0.0000000000000000e+00  -6.3900763004149036e-04 -1.6661351602761342e-02 0.0000000000000000e+00  6.7036689611648574e-04 -3.7781610338074548e-02 0.0000000000000000e+00  2.8907790052275480e-03 -3.8960922748734361e-02 0.0000000000000000e+00  6.0661950566907909e-03 -4.4032139472948428e-02 0.0000000000000000e+00  7.4062506977402452e-04 -2.0122276258512810e-02 0.0000000000000000e+00  2.9348994631491895e-03 -2.5903935480377418e-02 0.0000000000000000e+00  7.8777918542825981e-03 -5.4441812662835001e-02 0.0000000000000000e+00  1.5220745679874538e-02 -6.9093664529931750e-02 0.0000000000000000e+00  9.9841654947964223e-03 -6.1270360446607809e-02 0.0000000000000000e+00  2.7032947594194071e-02 -8.4651583372829062e-02 0.0000000000000000e+00  1.3745197730859407e-02 -6.2880222338051822e-02 0.0000000000000000e+00  1.5185171943114757e-02 -7.1328389518427932e-02 0.0000000000000000e+00  2.7952420703385845e-02 -8.6275675265160459e-02 0.0000000000000000e+00  3.1299471647575322e-02 -9.7929740486086048e-02 0.0000000000000000e+00  4.9972013789913582e-02 -1.0797441993054026e-01 0.0000000000000000e+00  5.2407810284702344e-02 -1.0827921552656475e-01 0.0000000000000000e+00  4.9849369203366647e-02 -1.2301297940434953e-01 0.0000000000000000e+00  2.0534512551941064e-02 -8.7915143458760142e-02 0.0000000000000000e+00  2.9391994444882674e-02 -1.2131470067682461e-01 0.0000000000000000e+00  2.1638181985101923e-02 -1.1227151558127635e-01 0.0000000000000000e+00  4.1694358688729324e-02 -1.5659997313504667e-01 0.0000000000000000e+00  5.1723422657278070e-02 -1.5142551046382915e-01 0.0000000000000000e+00  3.5906327575112161e-02 -2.0415533132686142e-01 0.0000000000000000e+00  -2.2966174061453291e-03 -1.6692919721619400e-03 0.0000000000000000e+00  -2.3467973714260838e-03 -1.6834731342632427e-03 0.0000000000000000e+00  -2.3581411784347091e-03 -1.6950010187681281e-03 0.0000000000000000e+00  -2.3266630920204825e-03 -1.6934227027556618e-03 0.0000000000000000e+00  -2.2546372146463049e-03 -1.6716276560821870e-03 0.0000000000000000e+00  -2.1461119535906171e-03 -1.6264840605427220e-03 0.0000000000000000e+00  -2.0046449303454885e-03 -1.5569820014104765e-03 0.0000000000000000e+00  -1.8329025783304258e-03 -1.4624131288904624e-03 0.0000000000000000e+00  -1.6321811023660619e-03 -1.3419085061060108e-03 0.0000000000000000e+00  -1.4023544720945748e-03 -1.1933557042406305e-03 0.0000000000000000e+00  -1.1415569024157358e-03 -1.0124230553138966e-03 0.0000000000000000e+00  -8.4519799377234957e-04 -7.8962710752486791e-04 0.0000000000000000e+00  -4.9456300411144800e-04 -5.0233688739386351e-04 0.0000000000000000e+00  -2.2193601929296168e-03 -1.7351066079734909e-03 0.0000000000000000e+00  -2.1880471878811215e-03 -1.8310900078495557e-03 0.0000000000000000e+00  -2.1428590733167997e-03 -1.9911910229939971e-03 0.0000000000000000e+00  -2.1011767275876843e-03 -2.2379247818397814e-03 0.0000000000000000e+00  -2.0721572555946230e-03 -2.5819739831803479e-03 0.0000000000000000e+00  -2.0670817196412790e-03 -3.0309850154051719e-03 0.0000000000000000e+00  -2.0942916594531482e-03 -3.5889977026801224e-03 0.0000000000000000e+00  -2.1587283371553362e-03 -4.2606391742214074e-03 0.0000000000000000e+00  -2.2650505984914086e-03 -5.0513704264761690e-03 0.0000000000000000e+00  -2.4134970390006639e-03 -5.9699337088541804e-03 0.0000000000000000e+00  -2.6025687490454758e-03 -7.0292303748264061e-03 0.0000000000000000e+00  -2.8279178048315145e-03 -8.2436076821109910e-03 0.0000000000000000e+00  -3.0841356832675762e-03 -9.6286668469148413e-03 0.0000000000000000e+00  -3.3666267716099571e-03 -1.1183750994931229e-02 0.0000000000000000e+00  -3.6674946868718943e-03 -1.2873699160778792e-02 0.0000000000000000e+00  -4.2345116863797029e-03 -1.6385829952601641e-02 0.0000000000000000e+00  -4.4407943558118805e-03 -1.8026526941164595e-02 0.0000000000000000e+00  -4.5769509371533729e-03 -1.9519883078214059e-02 0.0000000000000000e+00  -4.6583979783736268e-03 -2.0850458751221577e-02 0.0000000000000000e+00  -4.7220213809515176e-03 -2.2023579791309172e-02 0.0000000000000000e+00  -4.8032767057179116e-03 -2.3042523164197061e-02 0.0000000000000000e+00  -4.9241568441829135e-03 -2.3900174476298809e-02 0.0000000000000000e+00  -5.0844149150028467e-03 -2.4583878672400757e-02 0.0000000000000000e+00  -5.2683450722517382e-03 -2.5084863889557555e-02 0.0000000000000000e+00  -5.4464339995956455e-03 -2.5408151277763046e-02 0.0000000000000000e+00  -5.5900687427016772e-03 -2.5579868973234166e-02 0.0000000000000000e+00  -5.6828789654946206e-03 -2.5645324109616067e-02 0.0000000000000000e+00  -5.7290565876901125e-03 -2.5654601525857482e-02 0.0000000000000000e+00  -5.7443227152266024e-03 -2.5648433646413452e-02 0.0000000000000000e+00  -5.7467062304587656e-03 -2.5643329358375305e-02 0.0000000000000000e+00  -5.7456197727704444e-03 -2.5641102975491215e-02 0.0000000000000000e+00  -5.7454089473488786e-03 -2.5641282297317342e-02 0.0000000000000000e+00  -5.7455972977305189e-03 -2.5641459185251427e-02 0.0000000000000000e+00  -5.7467349591174173e-03 -2.5639213333082739e-02 0.0000000000000000e+00  -5.7443714507955969e-03 -2.5634085564603264e-02 0.0000000000000000e+00  -5.7290340888493333e-03 -2.5627579841247035e-02 0.0000000000000000e+00  -5.6833792178936429e-03 -2.5637514302494731e-02 0.0000000000000000e+00  -5.5894774888340651e-03 -2.5701977321584756e-02 0.0000000000000000e+00  -5.4473231814748833e-03 -2.5874395799961678e-02 0.0000000000000000e+00  -5.2692009344332382e-03 -2.6196368320334514e-02 0.0000000000000000e+00  -5.0856729562292298e-03 -2.6695927081411965e-02 0.0000000000000000e+00  -4.9243282954572025e-03 -2.7376589937712262e-02 0.0000000000000000e+00  -4.8017256488559652e-03 -2.8228538323684837e-02 0.0000000000000000e+00  -4.7154609721025758e-03 -2.9238381109047536e-02 0.0000000000000000e+00  -4.6397858746697286e-03 -3.0395023887051731e-02 0.0000000000000000e+00  -4.5347911955924023e-03 -3.1702264276225585e-02 0.0000000000000000e+00  -4.3541621696280780e-03 -3.3157661159450881e-02 0.0000000000000000e+00  -4.0697394505784731e-03 -3.4750523347641026e-02 0.0000000000000000e+00  -3.2085346040815420e-03 -3.8112333751854389e-02 0.0000000000000000e+00  -2.6931181831124753e-03 -3.9708984042340321e-02 0.0000000000000000e+00  -2.1699303414193290e-03 -4.1159662641744837e-02 0.0000000000000000e+00  -1.6757084882256382e-03 -4.2430125234353223e-02 0.0000000000000000e+00  -1.2451057707890520e-03 -4.3517256699205503e-02 0.0000000000000000e+00  -9.0630757664692332e-04 -4.4414461670754288e-02 0.0000000000000000e+00  -6.7001127457997755e-04 -4.5109884505475810e-02 0.0000000000000000e+00  -5.2521196706884149e-04 -4.5590279797195356e-02 0.0000000000000000e+00  -4.4797081554581020e-04 -4.5848423320864369e-02 0.0000000000000000e+00  -4.0234505316547286e-04 -4.5892741184540814e-02 0.0000000000000000e+00  -3.5594686655967015e-04 -4.5754626654938076e-02 0.0000000000000000e+00  -2.9097845280398518e-04 -4.5485587274711602e-02 0.0000000000000000e+00  -2.1209170167170444e-04 -4.5141985102279125e-02 0.0000000000000000e+00  -1.3622361222591741e-04 -4.4770512864778816e-02 0.0000000000000000e+00  -8.3004003947084284e-05 -4.4392479682972205e-02 0.0000000000000000e+00  8.2353103228235817e-04 -4.4014933042347978e-02 0.0000000000000000e+00  5.2825463158578684e-04 -4.4014726167949880e-02 0.0000000000000000e+00  2.3261693135050493e-04 -4.4014515599270554e-02 0.0000000000000000e+00  1.1358438623323311e-03 -4.4389927831676453e-02 0.0000000000000000e+00  1.1932465471750371e-03 -4.4757624542531252e-02 0.0000000000000000e+00  1.3006623195044816e-03 -4.5117203879119119e-02 0.0000000000000000e+00  1.4748615891754444e-03 -4.5484318212224678e-02 0.0000000000000000e+00  1.7322193726261195e-03 -4.5895441856151353e-02 0.0000000000000000e+00  2.0696160599770214e-03 -4.6401784053460071e-02 0.0000000000000000e+00  2.4713905445915116e-03 -4.7041027589276904e-02 0.0000000000000000e+00  2.9045398576959410e-03 -4.7836066775601961e-02 0.0000000000000000e+00  3.3412810955447581e-03 -4.8785611357187425e-02 0.0000000000000000e+00  3.7666954084554544e-03 -4.9876978975759580e-02 0.0000000000000000e+00  4.1855358639964245e-03 -5.1096515114046510e-02 0.0000000000000000e+00  4.6242007125338342e-03 -5.2436406598537363e-02 0.0000000000000000e+00  5.1204124719245112e-03 -5.3904427909847487e-02 0.0000000000000000e+00  5.7113402337730336e-03 -5.5504013332896729e-02 0.0000000000000000e+00  6.4106710016453615e-03 -5.7229498924177731e-02 0.0000000000000000e+00  8.0222543925902740e-03 -6.0833060258716508e-02 0.0000000000000000e+00  8.8334725716370001e-03 -6.2528395941641723e-02 0.0000000000000000e+00  9.5944732543150387e-03 -6.4060887725568172e-02 0.0000000000000000e+00  1.0277463413735711e-02 -6.5393301951701954e-02 0.0000000000000000e+00  1.0854629904279437e-02 -6.6517237700641468e-02 0.0000000000000000e+00  1.1308017579345912e-02 -6.7431448182140738e-02 0.0000000000000000e+00  1.1634375061138097e-02 -6.8122351544967721e-02 0.0000000000000000e+00  1.1849978196430085e-02 -6.8577142814124997e-02 0.0000000000000000e+00  1.1986748859220098e-02 -6.8790004895893722e-02 0.0000000000000000e+00  1.2082876421121259e-02 -6.8772360837107027e-02 0.0000000000000000e+00  1.2172430388515079e-02 -6.8558220708634987e-02 0.0000000000000000e+00  1.2275650486030460e-02 -6.8204780226839595e-02 0.0000000000000000e+00  1.2385521181817277e-02 -6.7770905809446724e-02 0.0000000000000000e+00  1.2484608359199956e-02 -6.7305297340037581e-02 0.0000000000000000e+00  1.2552261990580628e-02 -6.6831583051317159e-02 0.0000000000000000e+00  1.3691010170431945e-02 -6.6358263352822425e-02 0.0000000000000000e+00  1.3320033496933415e-02 -6.6357813707185354e-02 0.0000000000000000e+00  1.2948680193379237e-02 -6.6357358051358908e-02 0.0000000000000000e+00  1.4083414515373699e-02 -6.6829929565579024e-02 0.0000000000000000e+00  1.4154767156092669e-02 -6.7293057139761692e-02 0.0000000000000000e+00  1.4285824250876964e-02 -6.7746197952460910e-02 0.0000000000000000e+00  1.4493741284923754e-02 -6.8204734140078799e-02 0.0000000000000000e+00  1.4795225565842304e-02 -6.8705185790219295e-02 0.0000000000000000e+00  1.5187089392208551e-02 -6.9299283962184252e-02 0.0000000000000000e+00  1.5652547002981951e-02 -7.0024642358667247e-02 0.0000000000000000e+00  1.6158640715654659e-02 -7.0901607594880900e-02 0.0000000000000000e+00  1.6680569127476442e-02 -7.1926402288639668e-02 0.0000000000000000e+00  1.7207402020810551e-02 -7.3085127423828500e-02 0.0000000000000000e+00  1.7751606984220365e-02 -7.4361690719277604e-02 0.0000000000000000e+00  1.8348907843952367e-02 -7.5749976532192981e-02 0.0000000000000000e+00  1.9051069473438962e-02 -7.7254062453828362e-02 0.0000000000000000e+00  1.9907717113437667e-02 -7.8881028756289467e-02 0.0000000000000000e+00  2.0943147285736610e-02 -8.0625197361690909e-02 0.0000000000000000e+00  2.3413990362843681e-02 -8.4247876669422017e-02 0.0000000000000000e+00  2.4700029910160196e-02 -8.5935855554567495e-02 0.0000000000000000e+00  2.5929565278782863e-02 -8.7439170347756487e-02 0.0000000000000000e+00  2.7055782583831980e-02 -8.8711796140128002e-02 0.0000000000000000e+00  2.8039831921898562e-02 -8.9738234164873920e-02 0.0000000000000000e+00  2.8859880262281638e-02 -9.0512140845342107e-02 0.0000000000000000e+00  2.9513607437194826e-02 -9.1015312028916842e-02 0.0000000000000000e+00  3.0021401708097285e-02 -9.1233907128609279e-02 0.0000000000000000e+00  3.0419724541720174e-02 -9.1164673509749744e-02 0.0000000000000000e+00  3.0749467637166329e-02 -9.0825167541891266e-02 0.0000000000000000e+00  3.1044700290942827e-02 -9.0257599289501472e-02 0.0000000000000000e+00  3.1323103703333001e-02 -8.9527610903738203e-02 0.0000000000000000e+00  3.1573834727529400e-02 -8.8700835428515687e-02 0.0000000000000000e+00  3.1776126954753417e-02 -8.7831010336400797e-02 0.0000000000000000e+00  3.1907200260419294e-02 -8.6945527872704181e-02 0.0000000000000000e+00  3.4047662939212464e-02 -8.6061763499274829e-02 0.0000000000000000e+00  3.3350413577466938e-02 -8.6059525687754976e-02 0.0000000000000000e+00  3.2652704689486924e-02 -8.6057279999776137e-02 0.0000000000000000e+00  3.4784477115718887e-02 -8.6950991268109429e-02 0.0000000000000000e+00  3.4914615336446186e-02 -8.7825957617773689e-02 0.0000000000000000e+00  3.5144774441090834e-02 -8.8682649525245821e-02 0.0000000000000000e+00  3.5491988478345594e-02 -8.9532437883378571e-02 0.0000000000000000e+00  3.5972968713564230e-02 -9.0408554634288985e-02 0.0000000000000000e+00  3.6584735888353946e-02 -9.1359934896290212e-02 0.0000000000000000e+00  3.7311218593843301e-02 -9.2421230457597175e-02 0.0000000000000000e+00  3.8122012935627544e-02 -9.3609709459794133e-02 0.0000000000000000e+00  3.8997742273372320e-02 -9.4919334610912967e-02 0.0000000000000000e+00  3.9936090213923664e-02 -9.6336531442406115e-02 0.0000000000000000e+00  4.0959861558482885e-02 -9.7850344342136825e-02 0.0000000000000000e+00  4.2113783701402008e-02 -9.9464915157839853e-02 0.0000000000000000e+00  4.3449722065009293e-02 -1.0120307430840375e-01 0.0000000000000000e+00  4.4996210549388578e-02 -1.0309931880442842e-01 0.0000000000000000e+00  4.6724204766256439e-02 -1.0517568147053322e-01 0.0000000000000000e+00  5.0196672125974881e-02 -1.0971391107246628e-01 0.0000000000000000e+00  5.1630244925298406e-02 -1.1195737072029308e-01 0.0000000000000000e+00  5.2767751431462458e-02 -1.1404782384340649e-01 0.0000000000000000e+00  5.3634997932367395e-02 -1.1591619759369361e-01 0.0000000000000000e+00  5.4292188618802889e-02 -1.1755579913629280e-01 0.0000000000000000e+00  5.4793113256188776e-02 -1.1899454054157407e-01 0.0000000000000000e+00  5.5175890213508397e-02 -1.2026440751017227e-01 0.0000000000000000e+00  5.5463922154165915e-02 -1.2139772804964603e-01 0.0000000000000000e+00  5.5669800916601515e-02 -1.2241936274765286e-01 0.0000000000000000e+00  5.5802626099352257e-02 -1.2334426098892289e-01 0.0000000000000000e+00  5.5868378360350267e-02 -1.2417984449446202e-01 0.0000000000000000e+00  5.5874422778010413e-02 -1.2492376293940650e-01 0.0000000000000000e+00  5.5834256370706589e-02 -1.2556985973060122e-01 0.0000000000000000e+00  5.5763788991012898e-02 -1.2611053951118339e-01 0.0000000000000000e+00  5.5697685745694593e-02 -1.2654913862848993e-01 0.0000000000000000e+00  5.2799552484231627e-02 -1.2987601210436148e-01 0.0000000000000000e+00  5.3136033854610625e-02 -1.2944639564518801e-01 0.0000000000000000e+00  5.3431233824931541e-02 -1.2901873850822479e-01 0.0000000000000000e+00  5.3679903836418089e-02 -1.2860674071132089e-01 0.0000000000000000e+00  5.3884518946663934e-02 -1.2822308905876054e-01 0.0000000000000000e+00  5.4052448394177582e-02 -1.2787759491342357e-01 0.0000000000000000e+00  5.4194180822618933e-02 -1.2757818434922580e-01 0.0000000000000000e+00  5.4322497555596552e-02 -1.2733111000232464e-01 0.0000000000000000e+00  5.4452174952015264e-02 -1.2714087482524700e-01 0.0000000000000000e+00  5.4599556511368434e-02 -1.2700953811531526e-01 0.0000000000000000e+00  5.4783029694909439e-02 -1.2693619853010693e-01 0.0000000000000000e+00  5.5020509391879073e-02 -1.2691167487814325e-01 0.0000000000000000e+00  5.5322774582337905e-02 -1.2691864228431168e-01 0.0000000000000000e+00  1.0656574046437053e-01 -2.7489227005807193e-01 0.0000000000000000e+00  1.0639904598809095e-01 -2.7137426312205026e-01 0.0000000000000000e+00  1.0621913705192818e-01 -2.6782798053032775e-01 0.0000000000000000e+00  1.0601619287016993e-01 -2.6423287165065390e-01 0.0000000000000000e+00  1.0577772672129143e-01 -2.6058118866903807e-01 0.0000000000000000e+00  1.0549519432075888e-01 -2.5687420942512484e-01 0.0000000000000000e+00  1.0516351790560123e-01 -2.5311786988926938e-01 0.0000000000000000e+00  1.0477994691994867e-01 -2.4932148872303384e-01 0.0000000000000000e+00  1.0434559868398155e-01 -2.4549595048089795e-01 0.0000000000000000e+00  1.0386346574775421e-01 -2.4165244455131341e-01 0.0000000000000000e+00  1.0333825009177286e-01 -2.3780164274203808e-01 0.0000000000000000e+00  1.0277533819447027e-01 -2.3395373807144323e-01 0.0000000000000000e+00  1.0218043235693727e-01 -2.3011811072224828e-01 0.0000000000000000e+00  1.0155869481509598e-01 -2.2630339618540185e-01 0.0000000000000000e+00  1.0091422008581256e-01 -2.2251790858556519e-01 0.0000000000000000e+00  1.0024966980562212e-01 -2.1877028932074549e-01 0.0000000000000000e+00  9.9566524335278433e-02 -2.1506966748031309e-01 0.0000000000000000e+00  9.8864189633044414e-02 -2.1142737229425662e-01 0.0000000000000000e+00  9.8141076308375819e-02 -2.0785650306326661e-01 0.0000000000000000e+00  9.7394335125189371e-02 -2.0437368079267287e-01 0.0000000000000000e+00  9.6620360100574926e-02 -2.0100055981371542e-01 0.0000000000000000e+00  9.5815075651600121e-02 -1.9776716398140654e-01 0.0000000000000000e+00  9.4974423662237004e-02 -1.9472457774954996e-01 0.0000000000000000e+00  9.4117315557602374e-02 -1.9197296257814017e-01 0.0000000000000000e+00  9.3276573120062989e-02 -1.8945219043292633e-01 0.0000000000000000e+00  9.2452343263530745e-02 -1.8709560666788300e-01 0.0000000000000000e+00  9.1641826772110815e-02 -1.8487618166026967e-01 0.0000000000000000e+00  9.0844227674948083e-02 -1.8277514090323216e-01 0.0000000000000000e+00  9.0059069189678861e-02 -1.8077864152567646e-01 0.0000000000000000e+00  8.9287248567195554e-02 -1.7887561387984960e-01 0.0000000000000000e+00  8.8530195775650244e-02 -1.7705634215855190e-01 0.0000000000000000e+00  8.7790173100109017e-02 -1.7531191074217559e-01 0.0000000000000000e+00  8.7069932911306200e-02 -1.7363367551361350e-01 0.0000000000000000e+00  8.6372310879499287e-02 -1.7201329806168414e-01 0.0000000000000000e+00  8.5700405104762026e-02 -1.7044211336386519e-01 0.0000000000000000e+00  8.5056805229408686e-02 -1.6891156613772113e-01 0.0000000000000000e+00  8.4443722900758633e-02 -1.6741329653803327e-01 0.0000000000000000e+00  