<?xml version="1.0"?>
<VTKFile type="UnstructuredGrid"  version="0.1"  >
<UnstructuredGrid>
<Piece  NumberOfPoints="12853" NumberOfCells="23493">
<Points>
<DataArray  type="Float64"  NumberOfComponents="3"  format="ascii">-3.187178156719634e-14 1.7 0  0 0 0  1.3 3 0  -3.185690647650846e-14 4.300000000000001 0  -3.187178156719634e-14 4.699999999999999 0  1.3 6 0  -3.185690647650846e-14 7.300000000000001 0  -3.187178156719634e-14 7.699999999999999 0  1.3 9 0  -3.185690647650846e-14 10.3 0  -3.187178156719634e-14 10.7 0  1.3 12 0  -3.185690647650846e-14 13.3 0  -3.187178156719634e-14 13.7 0  1.3 15 0  -3.185690647650846e-14 16.3 0  0 18 0  18 18 0  17.99999999999997 16.3 0  17.99999999999997 13.7 0  17.99999999999997 13.3 0  17.99999999999997 10.7 0  17.99999999999997 10.3 0  17.99999999999997 7.7 0  17.99999999999997 7.3 0  17.99999999999997 4.7 0  17.99999999999997 4.3 0  17.99999999999997 1.7 0  18 0 0  4.3 3 0  7.3 3 0  10.3 3 0  4.3 6 0  7.3 6 0  10.3 6 0  13.3 3 0  16.3 3 0  13.3 6 0  16.3 6 0  4.3 9 0  4.3 12 0  7.3 9 0  10.3 9 0  7.3 12 0  10.3 12 0  4.3 15 0  7.3 15 0  10.3 15 0  13.3 9 0  13.3 12 0  16.3 9 0  16.3 12 0  13.3 15 0  16.3 15 0  0 1.578571428571429 0  0 1.457142857142856 0  0 1.335714285714285 0  0 1.214285714285712 0  0 1.092857142857142 0  0 0.9714285714285715 0  0 0.8499999999999979 0  0 0.7285714285714278 0  0 0.6071428571428577 0  0 0.485714285714284 0  0 0.3642857142857139 0  0 0.2428571428571438 0  0 0.1214285714285701 0  0.1274222824284281 1.706259855326144 0  0.2536174186209668 1.7249791354758 0  0.3773700804308007 1.755977563548128 0  0.497488462074617 1.798956607735327 0  0.6128157578737968 1.853502356347138 0  0.7222413029254824 1.919089504006691 0  0.8247112694127393 1.995086410628442 0  0.9192388155425116 2.080761184457488 0  1.004913589371558 2.17528873058726 0  1.080910495993309 2.277758697074517 0  1.146497643652861 2.387184242126203 0  1.201043392264673 2.502511537925383 0  1.244022436451871 2.622629919569199 0  1.275020864524199 2.746382581379033 0  1.293740144673856 2.872577717571571 0  1.293740144673856 3.127422282428428 0  1.2750208645242 3.253617418620966 0  1.244022436451872 3.3773700804308 0  1.201043392264673 3.497488462074616 0  1.146497643652862 3.612815757873796 0  1.08091049599331 3.722241302925481 0  1.00491358937156 3.824711269412738 0  0.9192388155425134 3.91923881554251 0  0.8247112694127412 4.004913589371556 0  0.7222413029254846 4.080910495993308 0  0.6128157578737984 4.146497643652861 0  0.4974884620746181 4.201043392264673 0  0.3773700804308024 4.244022436451871 0  0.2536174186209674 4.275020864524199 0  0.127422282428429 4.293740144673856 0  0 4.6 0  0 4.5 0  0 4.4 0  0.1274222824284281 4.706259855326143 0  0.2536174186209668 4.724979135475801 0  0.3773700804308007 4.755977563548129 0  0.497488462074617 4.798956607735327 0  0.6128157578737968 4.853502356347138 0  0.7222413029254824 4.919089504006691 0  0.8247112694127393 4.995086410628442 0  0.9192388155425116 5.080761184457488 0  1.004913589371558 5.17528873058726 0  1.080910495993309 5.277758697074518 0  1.146497643652861 5.387184242126203 0  1.201043392264673 5.502511537925383 0  1.244022436451871 5.622629919569198 0  1.275020864524199 5.746382581379033 0  1.293740144673856 5.872577717571572 0  1.293740144673856 6.127422282428428 0  1.2750208645242 6.253617418620967 0  1.244022436451872 6.377370080430801 0  1.201043392264673 6.497488462074616 0  1.146497643652862 6.612815757873795 0  1.08091049599331 6.722241302925481 0  1.00491358937156 6.824711269412737 0  0.9192388155425134 6.91923881554251 0  0.8247112694127412 7.004913589371556 0  0.7222413029254846 7.080910495993308 0  0.6128157578737984 7.146497643652861 0  0.4974884620746181 7.201043392264673 0  0.3773700804308024 7.244022436451871 0  0.2536174186209674 7.275020864524199 0  0.127422282428429 7.293740144673856 0  0 7.6 0  0 7.5 0  0 7.4 0  0.1274222824284281 7.706259855326143 0  0.2536174186209668 7.724979135475801 0  0.3773700804308007 7.755977563548129 0  0.497488462074617 7.798956607735327 0  0.6128157578737968 7.853502356347138 0  0.7222413029254824 7.919089504006691 0  0.8247112694127393 7.995086410628442 0  0.9192388155425116 8.080761184457488 0  1.004913589371558 8.17528873058726 0  1.080910495993309 8.277758697074518 0  1.146497643652861 8.387184242126203 0  1.201043392264673 8.502511537925383 0  1.244022436451871 8.622629919569199 0  1.275020864524199 8.746382581379033 0  1.293740144673856 8.872577717571572 0  1.293740144673856 9.127422282428428 0  1.2750208645242 9.253617418620966 0  1.244022436451872 9.377370080430801 0  1.201043392264673 9.497488462074616 0  1.146497643652862 9.612815757873795 0  1.08091049599331 9.722241302925481 0  1.00491358937156 9.824711269412738 0  0.9192388155425134 9.91923881554251 0  0.8247112694127412 10.00491358937156 0  0.7222413029254846 10.08091049599331 0  0.6128157578737984 10.14649764365286 0  0.4974884620746181 10.20104339226467 0  0.3773700804308024 10.24402243645187 0  0.2536174186209674 10.2750208645242 0  0.127422282428429 10.29374014467386 0  0 10.6 0  0 10.5 0  0 10.4 0  0.1274222824284281 10.70625985532614 0  0.2536174186209668 10.7249791354758 0  0.3773700804308007 10.75597756354813 0  0.497488462074617 10.79895660773533 0  0.6128157578737968 10.85350235634714 0  0.7222413029254824 10.91908950400669 0  0.8247112694127393 10.99508641062844 0  0.9192388155425116 11.08076118445749 0  1.004913589371558 11.17528873058726 0  1.080910495993309 11.27775869707452 0  1.146497643652861 11.3871842421262 0  1.201043392264673 11.50251153792538 0  1.244022436451871 11.6226299195692 0  1.275020864524199 11.74638258137903 0  1.293740144673856 11.87257771757157 0  1.293740144673856 12.12742228242843 0  1.2750208645242 12.25361741862097 0  1.244022436451872 12.3773700804308 0  1.201043392264673 12.49748846207462 0  1.146497643652862 12.6128157578738 0  1.08091049599331 12.72224130292548 0  1.00491358937156 12.82471126941274 0  0.9192388155425134 12.91923881554251 0  0.8247112694127412 13.00491358937156 0  0.7222413029254846 13.08091049599331 0  0.6128157578737984 13.14649764365286 0  0.4974884620746181 13.20104339226467 0  0.3773700804308024 13.24402243645187 0  0.2536174186209674 13.2750208645242 0  0.127422282428429 13.29374014467386 0  0 13.6 0  0 13.5 0  0 13.4 0  0.1274222824284281 13.70625985532614 0  0.2536174186209668 13.7249791354758 0  0.3773700804308007 13.75597756354813 0  0.497488462074617 13.79895660773533 0  0.6128157578737968 13.85350235634714 0  0.7222413029254824 13.91908950400669 0  0.8247112694127393 13.99508641062844 0  0.9192388155425116 14.08076118445749 0  1.004913589371558 14.17528873058726 0  1.080910495993309 14.27775869707452 0  1.146497643652861 14.3871842421262 0  1.201043392264673 14.50251153792538 0  1.244022436451871 14.6226299195692 0  1.275020864524199 14.74638258137903 0  1.293740144673856 14.87257771757157 0  1.293740144673856 15.12742228242843 0  1.2750208645242 15.25361741862097 0  1.244022436451872 15.3773700804308 0  1.201043392264673 15.49748846207462 0  1.146497643652862 15.6128157578738 0  1.08091049599331 15.72224130292548 0  1.00491358937156 15.82471126941274 0  0.9192388155425134 15.91923881554251 0  0.8247112694127412 16.00491358937156 0  0.7222413029254846 16.08091049599331 0  0.6128157578737984 16.14649764365286 0  0.4974884620746181 16.20104339226467 0  0.3773700804308024 16.24402243645187 0  0.2536174186209674 16.2750208645242 0  0.127422282428429 16.29374014467385 0  0 17.87857142857143 0  0 17.75714285714286 0  0 17.63571428571429 0  0 17.51428571428571 0  0 17.39285714285714 0  0 17.27142857142857 0  0 17.15 0  0 17.02857142857143 0  0 16.90714285714286 0  0 16.78571428571428 0  0 16.66428571428571 0  0 16.54285714285714 0  0 16.42142857142857 0  17.8705035971223 18 0  17.7410071942446 18 0  17.61151079136691 18 0  17.48201438848921 18 0  17.35251798561151 18 0  17.22302158273381 18 0  17.09352517985612 18 0  16.96402877697842 18 0  16.83453237410072 18 0  16.70503597122302 18 0  16.57553956834532 18 0  16.44604316546762 18 0  16.31654676258993 18 0  16.18705035971223 18 0  16.05755395683453 18 0  15.92805755395683 18 0  15.79856115107913 18 0  15.66906474820144 18 0  15.53956834532374 18 0  15.41007194244604 18 0  15.28057553956834 18 0  15.15107913669064 18 0  15.02158273381295 18 0  14.89208633093525 18 0  14.76258992805755 18 0  14.63309352517985 18 0  14.50359712230215 18 0  14.37410071942446 18 0  14.24460431654676 18 0  14.11510791366906 18 0  13.98561151079136 18 0  13.85611510791366 18 0  13.72661870503597 18 0  13.59712230215827 18 0  13.46762589928057 18 0  13.33812949640287 18 0  13.20863309352517 18 0  13.07913669064748 18 0  12.94964028776977 18 0  12.82014388489208 18 0  12.69064748201438 18 0  12.56115107913668 18 0  12.43165467625898 18 0  12.30215827338128 18 0  12.17266187050359 18 0  12.04316546762589 18 0  11.91366906474819 18 0  11.78417266187049 18 0  11.65467625899279 18 0  11.52517985611509 18 0  11.3956834532374 18 0  11.2661870503597 18 0  11.136690647482 18 0  11.0071942446043 18 0  10.8776978417266 18 0  10.7482014388489 18 0  10.6187050359712 18 0  10.48920863309351 18 0  10.35971223021581 18 0  10.23021582733811 18 0  10.10071942446041 18 0  9.971223021582714 18 0  9.841726618705016 18 0  9.712230215827317 18 0  9.582733812949618 18 0  9.453237410071921 18 0  9.323741007194224 18 0  9.194244604316525 18 0  9.064748201438828 18 0  8.935251798561131 18 0  8.805755395683434 18 0  8.676258992805735 18 0  8.546762589928038 18 0  8.417266187050341 18 0  8.287769784172642 18 0  8.158273381294947 18 0  8.028776978417248 18 0  7.899280575539549 18 0  7.769784172661854 18 0  7.640287769784155 18 0  7.510791366906458 18 0  7.381294964028761 18 0  7.251798561151062 18 0  7.122302158273365 18 0  6.992805755395668 18 0  6.86330935251797 18 0  6.733812949640273 18 0  6.604316546762576 18 0  6.474820143884878 18 0  6.34532374100718 18 0  6.215827338129483 18 0  6.086330935251786 18 0  5.956834532374087 18 0  5.827338129496392 18 0  5.697
[...]
<PointData  Vectors="f_21"> 
<DataArray  type="Float64"  Name="f_21"  NumberOfComponents="3" format="ascii">-1.2255531475700782e-03 -9.1676227062644910e-04 0.0000000000000000e+00  0.0000000000000000e+00 0.0000000000000000e+00 0.0000000000000000e+00  -2.2209719263509902e-03 -8.0610694458370293e-03 0.0000000000000000e+00  -3.2983579659743149e-03 -1.4201872424346522e-02 0.0000000000000000e+00  -3.3259558232424588e-03 -1.4201715856463274e-02 0.0000000000000000e+00  -2.3433831726279524e-03 -2.0068654189294408e-02 0.0000000000000000e+00  -6.5889059302171884e-04 -2.4498222469273773e-02 0.0000000000000000e+00  -9.2939257204385366e-05 -2.4498403713227590e-02 0.0000000000000000e+00  2.8952263648774506e-03 -3.2485429455365276e-02 0.0000000000000000e+00  5.5271467676250461e-03 -3.6689476120944226e-02 0.0000000000000000e+00  6.2693701755834443e-03 -3.6689938638036518e-02 0.0000000000000000e+00  1.0342318411922305e-02 -4.5297892651990752e-02 0.0000000000000000e+00  1.5168787173931561e-02 -4.7695761287363185e-02 0.0000000000000000e+00  1.6550911509192114e-02 -4.7697980620933098e-02 0.0000000000000000e+00  2.3490402397580334e-02 -5.8873340130646039e-02 0.0000000000000000e+00  2.7143210229547951e-02 -6.9456622298743484e-02 0.0000000000000000e+00  2.5295994984784975e-02 -7.1282214897927867e-02 0.0000000000000000e+00  5.4424018219227120e-02 -1.4900769987758219e-01 0.0000000000000000e+00  2.9400778414838461e-02 -1.4695573260344696e-01 0.0000000000000000e+00  2.4079122108228362e-02 -9.7828187335546199e-02 0.0000000000000000e+00  2.3778287332687168e-02 -9.7828221709277380e-02 0.0000000000000000e+00  1.9306073568737675e-02 -7.8602956519576286e-02 0.0000000000000000e+00  1.7664186826959163e-02 -7.8600069101656816e-02 0.0000000000000000e+00  1.2672696263114347e-02 -5.1440321312589327e-02 0.0000000000000000e+00  1.2003941244160996e-02 -5.1440174011704871e-02 0.0000000000000000e+00  8.2626657107630098e-03 -2.9091903984717161e-02 0.0000000000000000e+00  7.4125538520884108e-03 -2.9091362586739614e-02 0.0000000000000000e+00  2.0434215331282318e-03 -1.6013047147272563e-03 0.0000000000000000e+00  0.0000000000000000e+00 0.0000000000000000e+00 0.0000000000000000e+00  -1.2975946625555536e-03 -8.0990098995880281e-03 0.0000000000000000e+00  -6.4188722614298558e-04 -8.1864073741023322e-03 0.0000000000000000e+00  -3.8804531293049467e-04 -9.0987264304292614e-03 0.0000000000000000e+00  -6.2469358104054169e-05 -2.0689991921974644e-02 0.0000000000000000e+00  1.2096120365420850e-03 -2.1309957643575180e-02 0.0000000000000000e+00  2.8251658375801902e-03 -2.4051945325708986e-02 0.0000000000000000e+00  3.0968056241709906e-04 -1.0956718948811514e-02 0.0000000000000000e+00  1.6300225434348404e-03 -1.3956787428152009e-02 0.0000000000000000e+00  4.0305764779933716e-03 -2.9574878189028913e-02 0.0000000000000000e+00  7.6801895627157547e-03 -3.7226362414301134e-02 0.0000000000000000e+00  4.4959166764816970e-03 -3.3535309547007175e-02 0.0000000000000000e+00  1.2855332471237605e-02 -4.6308692320497349e-02 0.0000000000000000e+00  6.4246343521920423e-03 -3.4391278499855210e-02 0.0000000000000000e+00  7.3838619695615511e-03 -3.8953103476098587e-02 0.0000000000000000e+00  1.3491208545623438e-02 -4.7163085117395663e-02 0.0000000000000000e+00  1.5128277419593108e-02 -5.3464305371748157e-02 0.0000000000000000e+00  2.4420928649439268e-02 -5.9017726961828984e-02 0.0000000000000000e+00  2.5650099360687167e-02 -5.9146412865687649e-02 0.0000000000000000e+00  2.4402530038679097e-02 -6.7169895962179760e-02 0.0000000000000000e+00  9.9885439655846425e-03 -4.7808094883723347e-02 0.0000000000000000e+00  1.4542310192551889e-02 -6.5940906142641420e-02 0.0000000000000000e+00  1.1204156681157285e-02 -6.0514222983277882e-02 0.0000000000000000e+00  2.0388111764828531e-02 -8.4443667213433937e-02 0.0000000000000000e+00  2.5287890749420422e-02 -8.2335283245520197e-02 0.0000000000000000e+00  1.7902334017571936e-02 -1.1010622466041195e-01 0.0000000000000000e+00  -1.2630569145857075e-03 -9.1888559493491463e-04 0.0000000000000000e+00  -1.2903485401666087e-03 -9.2665728578460952e-04 0.0000000000000000e+00  -1.2962699131623236e-03 -9.3290851894727109e-04 0.0000000000000000e+00  -1.2786686215547492e-03 -9.3189553749815327e-04 0.0000000000000000e+00  -1.2388231688229539e-03 -9.1972393348116216e-04 0.0000000000000000e+00  -1.1789757659558726e-03 -8.9469201707556264e-04 0.0000000000000000e+00  -1.1010906481672108e-03 -8.5625954939507701e-04 0.0000000000000000e+00  -1.0066365013230083e-03 -8.0405323168071410e-04 0.0000000000000000e+00  -8.9632551920526082e-04 -7.3760910791813772e-04 0.0000000000000000e+00  -7.7008523560842155e-04 -6.5577968366096540e-04 0.0000000000000000e+00  -6.2688385949503001e-04 -5.5619849197085754e-04 0.0000000000000000e+00  -4.6418720494056009e-04 -4.3367196747737404e-04 0.0000000000000000e+00  -2.7170121781302365e-04 -2.7579934085672524e-04 0.0000000000000000e+00  -1.2208361954984287e-03 -9.5482776904071023e-04 0.0000000000000000e+00  -1.2036848392159068e-03 -1.0074310163891837e-03 0.0000000000000000e+00  -1.1790119079752922e-03 -1.0953418113164427e-03 0.0000000000000000e+00  -1.1564031074337076e-03 -1.2309002987349737e-03 0.0000000000000000e+00  -1.1409186541260536e-03 -1.4199500449942107e-03 0.0000000000000000e+00  -1.1387904491590307e-03 -1.6666761506846028e-03 0.0000000000000000e+00  -1.1546396661990430e-03 -1.9732993800240886e-03 0.0000000000000000e+00  -1.1912374997242773e-03 -2.3423887147498972e-03 0.0000000000000000e+00  -1.2512114867976663e-03 -2.7770010432834062e-03 0.0000000000000000e+00  -1.3347913244083122e-03 -3.2820302373656038e-03 0.0000000000000000e+00  -1.4412941106549003e-03 -3.8646978251344844e-03 0.0000000000000000e+00  -1.5685228707598082e-03 -4.5330568518016281e-03 0.0000000000000000e+00  -1.7137427324188388e-03 -5.2958784206686323e-03 0.0000000000000000e+00  -1.8746644964028867e-03 -6.1529897728997184e-03 0.0000000000000000e+00  -2.0471374065713002e-03 -7.0851594868129334e-03 0.0000000000000000e+00  -2.3773276997453466e-03 -9.0240335249812328e-03 0.0000000000000000e+00  -2.5015335199370294e-03 -9.9301071824607016e-03 0.0000000000000000e+00  -2.5874280986110981e-03 -1.0754757520898117e-02 0.0000000000000000e+00  -2.6428058787041236e-03 -1.1489543393318032e-02 0.0000000000000000e+00  -2.6874477365001980e-03 -1.2137676552731173e-02 0.0000000000000000e+00  -2.7406312202331654e-03 -1.2701330738520871e-02 0.0000000000000000e+00  -2.8144695675642391e-03 -1.3176960154988799e-02 0.0000000000000000e+00  -2.9089946430679889e-03 -1.3557837257614924e-02 0.0000000000000000e+00  -3.0157349069283327e-03 -1.3839217370213147e-02 0.0000000000000000e+00  -3.1185997576887205e-03 -1.4023769838439740e-02 0.0000000000000000e+00  -3.2018971924339906e-03 -1.4125676248042892e-02 0.0000000000000000e+00  -3.2565918148923169e-03 -1.4169649777283518e-02 0.0000000000000000e+00  -3.2849180008077011e-03 -1.4183072340550898e-02 0.0000000000000000e+00  -3.2954478680044313e-03 -1.4188234063600520e-02 0.0000000000000000e+00  -3.2980523294827624e-03 -1.4194134477412105e-02 0.0000000000000000e+00  -3.3185726540168382e-03 -1.4201695637821147e-02 0.0000000000000000e+00  -3.3115631337320615e-03 -1.4201795122337203e-02 0.0000000000000000e+00  -3.3047711640281511e-03 -1.4201893287507398e-02 0.0000000000000000e+00  -3.3265097234905002e-03 -1.4191873412030721e-02 0.0000000000000000e+00  -3.3264980158229695e-03 -1.4180359396544577e-02 0.0000000000000000e+00  -3.3202017464227349e-03 -1.4168269430698125e-02 0.0000000000000000e+00  -3.2980821935990573e-03 -1.4165488669781307e-02 0.0000000000000000e+00  -3.2502780519897247e-03 -1.4193032821499644e-02 0.0000000000000000e+00  -3.1767792664159091e-03 -1.4280340299185408e-02 0.0000000000000000e+00  -3.0843304908729050e-03 -1.4450354269174331e-02 0.0000000000000000e+00  -2.9897530902279661e-03 -1.4718603364231961e-02 0.0000000000000000e+00  -2.9082991731979734e-03 -1.5087207017538014e-02 0.0000000000000000e+00  -2.8492620415367822e-03 -1.5551032249617864e-02 0.0000000000000000e+00  -2.8116786639567452e-03 -1.6103057554052200e-02 0.0000000000000000e+00  -2.7820259863235819e-03 -1.6737545100066045e-02 0.0000000000000000e+00  -2.7393251339091207e-03 -1.7456948506644490e-02 0.0000000000000000e+00  -2.6593554024958526e-03 -1.8259939062902325e-02 0.0000000000000000e+00  -2.5276520067499760e-03 -1.9140398468579477e-02 0.0000000000000000e+00  -2.1177377771964554e-03 -2.1000020037484877e-02 0.0000000000000000e+00  -1.8690038183103281e-03 -2.1883234904254902e-02 0.0000000000000000e+00  -1.6147706832487624e-03 -2.2686226671236157e-02 0.0000000000000000e+00  -1.3738492308232528e-03 -2.3391001950737785e-02 0.0000000000000000e+00  -1.1647784224206354e-03 -2.3996519784809888e-02 0.0000000000000000e+00  -1.0030158824327565e-03 -2.4499841713486938e-02 0.0000000000000000e+00  -8.9474022474692126e-04 -2.4894903074068456e-02 0.0000000000000000e+00  -8.3433276579059849e-04 -2.5174594346470281e-02 0.0000000000000000e+00  -8.0895514202135592e-04 -2.5334865530564632e-02 0.0000000000000000e+00  -7.9907135151304051e-04 -2.5380000098505051e-02 0.0000000000000000e+00  -7.8689022511421226e-04 -2.5326772499725769e-02 0.0000000000000000e+00  -7.6248519887193674e-04 -2.5203009426175101e-02 0.0000000000000000e+00  -7.2820134450652405e-04 -2.5039295919782191e-02 0.0000000000000000e+00  -6.9314903652097353e-04 -2.4860997785845482e-02 0.0000000000000000e+00  -6.6799557106557840e-04 -2.4679589046266742e-02 0.0000000000000000e+00  -2.3394603237067646e-04 -2.4498287569102460e-02 0.0000000000000000e+00  -3.7533477279594628e-04 -2.4498315022879472e-02 0.0000000000000000e+00  -5.1691909601933074e-04 -2.4498340765194922e-02 0.0000000000000000e+00  -8.4322601190358967e-05 -2.4677613805507568e-02 0.0000000000000000e+00  -5.6510486513903795e-05 -2.4853312779166047e-02 0.0000000000000000e+00  -3.7918319907749026e-06 -2.5025052453609802e-02 0.0000000000000000e+00  8.3092167941506171e-05 -2.5201670111012722e-02 0.0000000000000000e+00  2.1321361350806639e-04 -2.5403416338240885e-02 0.0000000000000000e+00  3.8496078677626935e-04 -2.5658642087400638e-02 0.0000000000000000e+00  5.8982083873814796e-04 -2.5988300253542526e-02 0.0000000000000000e+00  8.0967243521798404e-04 -2.6405289054824945e-02 0.0000000000000000e+00  1.0291110585982368e-03 -2.6909257949799467e-02 0.0000000000000000e+00  1.2396159871995948e-03 -2.7493594944391030e-02 0.0000000000000000e+00  1.4432664587977380e-03 -2.8151100193610928e-02 0.0000000000000000e+00  1.6538417418496966e-03 -2.8877620161351959e-02 0.0000000000000000e+00  1.8911671795383573e-03 -2.9677474368621014e-02 0.0000000000000000e+00  2.1749778575118920e-03 -3.0551962534885995e-02 0.0000000000000000e+00  2.5129631878227864e-03 -3.1497251090076270e-02 0.0000000000000000e+00  3.2993811462933222e-03 -3.3471738316613917e-02 0.0000000000000000e+00  3.6996137311465583e-03 -3.4400192533722319e-02 0.0000000000000000e+00  4.0780415517858931e-03 -3.5239762714587737e-02 0.0000000000000000e+00  4.4197055664040880e-03 -3.5971098568049795e-02 0.0000000000000000e+00  4.7087805526936401e-03 -3.6590343879201202e-02 0.0000000000000000e+00  4.9344959965455801e-03 -3.7097257508612820e-02 0.0000000000000000e+00  5.0941265465530424e-03 -3.7484776355011767e-02 0.0000000000000000e+00  5.1957507138235626e-03 -3.7745952105068814e-02 0.0000000000000000e+00  5.2562127952338351e-03 -3.7877411089320044e-02 0.0000000000000000e+00  5.2960653596868046e-03 -3.7884986382634357e-02 0.0000000000000000e+00  5.3338603222476428e-03 -3.7786766999594844e-02 0.0000000000000000e+00  5.3807814711107791e-03 -3.7613557366124949e-02 0.0000000000000000e+00  5.4331883702476297e-03 -3.7397211603557697e-02 0.0000000000000000e+00  5.4817200373932966e-03 -3.7164122084122425e-02 0.0000000000000000e+00  5.5151897935517107e-03 -3.6927021421878314e-02 0.0000000000000000e+00  6.0843099092608615e-03 -3.6689750754129634e-02 0.0000000000000000e+00  5.8988565688961507e-03 -3.6689710308006981e-02 0.0000000000000000e+00  5.7131992972051645e-03 -3.6689666967963219e-02 0.0000000000000000e+00  6.2806513679820623e-03 -3.6925275356617222e-02 0.0000000000000000e+00  6.3166658585348152e-03 -3.7156524298823046e-02 0.0000000000000000e+00  6.3831812302493074e-03 -3.7382711373202905e-02 0.0000000000000000e+00  6.4896321262910214e-03 -3.7612444040311103e-02 0.0000000000000000e+00  6.6452496433085893e-03 -3.7865880733453705e-02 0.0000000000000000e+00  6.8484135969563934e-03 -3.8171545768478657e-02 0.0000000000000000e+00  7.0900389759229908e-03 -3.8550313490739258e-02 0.0000000000000000e+00  7.3520566943617626e-03 -3.9013725114837902e-02 0.0000000000000000e+00  7.6206420992997407e-03 -3.9560179975127611e-02 0.0000000000000000e+00  7.8892863652212514e-03 -4.0182565753068646e-02 0.0000000000000000e+00  8.1639342367972132e-03 -4.0872516245696142e-02 0.0000000000000000e+00  8.4628514798726715e-03 -4.1627077045574577e-02 0.0000000000000000e+00  8.8125771409419042e-03 -4.2448678566433598e-02 0.0000000000000000e+00  9.2383126791575881e-03 -4.3340709877694450e-02 0.0000000000000000e+00  9.7521401003716288e-03 -4.4299340155662892e-02 0.0000000000000000e+00  1.0976747184351781e-02 -4.6290797650668410e-02 0.0000000000000000e+00  1.1615100002664946e-02 -4.7218487513266481e-02 0.0000000000000000e+00  1.2226912961887078e-02 -4.8045916750284863e-02 0.0000000000000000e+00  1.2788347267147612e-02 -4.8749557671003710e-02 0.0000000000000000e+00  1.3278472502268461e-02 -4.9322251115255074e-02 0.0000000000000000e+00  1.3684807229602462e-02 -4.9761351211855653e-02 0.0000000000000000e+00  1.4005234992301665e-02 -5.0057545408085713e-02 0.0000000000000000e+00  1.4250009592983819e-02 -5.0203365662463806e-02 0.0000000000000000e+00  1.4438358979688428e-02 -5.0196704535711595e-02 0.0000000000000000e+00  1.4592284123989033e-02 -5.0046452001744401e-02 0.0000000000000000e+00  1.4730412004639216e-02 -4.9774798879379675e-02 0.0000000000000000e+00  1.4862702843833295e-02 -4.9416776965723538e-02 0.0000000000000000e+00  1.4983642291549073e-02 -4.9007621722271896e-02 0.0000000000000000e+00  1.5082236341386956e-02 -4.8576224835057046e-02 0.0000000000000000e+00  1.5146254709849207e-02 -4.8137171256773470e-02 0.0000000000000000e+00  1.6205917760848079e-02 -4.7697363659616236e-02 0.0000000000000000e+00  1.5860510419443211e-02 -4.7696875079071888e-02 0.0000000000000000e+00  1.5514856561696395e-02 -4.7696383102912583e-02 0.0000000000000000e+00  1.6571649881175463e-02 -4.8137140578228127e-02 0.0000000000000000e+00  1.6637017949447889e-02 -4.8570206215449517e-02 0.0000000000000000e+00  1.6752638301227685e-02 -4.8994069276769997e-02 0.0000000000000000e+00  1.6927909276133093e-02 -4.9415343372004178e-02 0.0000000000000000e+00  1.7172118311615237e-02 -4.9852552727191184e-02 0.0000000000000000e+00  1.7483838552260395e-02 -5.0332845290975418e-02 0.0000000000000000e+00  1.7854442778713089e-02 -5.0875643047547187e-02 0.0000000000000000e+00  1.8267268242678728e-02 -5.1490981140919059e-02 0.0000000000000000e+00  1.8711361256494450e-02 -5.2176151447600953e-02 0.0000000000000000e+00  1.9184728013134179e-02 -5.2924207655205377e-02 0.0000000000000000e+00  1.9698755150627922e-02 -5.3729320165119138e-02 0.0000000000000000e+00  2.0276577017776722e-02 -5.4593556343663190e-02 0.0000000000000000e+00  2.0945333020301101e-02 -5.5528519925695401e-02 0.0000000000000000e+00  2.1720525875524799e-02 -5.6551106375716920e-02 0.0000000000000000e+00  2.2588584122556349e-02 -5.7671384251394904e-02 0.0000000000000000e+00  2.4342331464843735e-02 -6.0113621084753689e-02 0.0000000000000000e+00  2.5072419196867545e-02 -6.1318891624582865e-02 0.0000000000000000e+00  2.5655651404870475e-02 -6.2442128654226756e-02 0.0000000000000000e+00  2.6103202448283808e-02 -6.3447606070631171e-02 0.0000000000000000e+00  2.6444079400337595e-02 -6.4332025577323690e-02 0.0000000000000000e+00  2.6704694862499403e-02 -6.5110145575335815e-02 0.0000000000000000e+00  2.6903937135194921e-02 -6.5798859887564343e-02 0.0000000000000000e+00  2.7053487366983053e-02 -6.6415232932178062e-02 0.0000000000000000e+00  2.7159641666840081e-02 -6.6972363327791024e-02 0.0000000000000000e+00  2.7227042221075116e-02 -6.7478081381493873e-02 0.0000000000000000e+00  2.7258820255130749e-02 -6.7936191992910219e-02 0.0000000000000000e+00  2.7258913950675000e-02 -6.8345253698572056e-02 0.0000000000000000e+00  2.7234629827116223e-02 -6.8701782988329227e-02 0.0000000000000000e+00  2.7194614619168968e-02 -6.9001535946535394e-02 0.0000000000000000e+00  2.7157646919536465e-02 -6.9246189386562393e-02 0.0000000000000000e+00  2.5496835897987843e-02 -7.1054525476876448e-02 0.0000000000000000e+00  2.5685621380954440e-02 -7.0822086870116999e-02 0.0000000000000000e+00  2.5852351077300235e-02 -7.0590677380605191e-02 0.0000000000000000e+00  2.5994052640120020e-02 -7.0367702654045822e-02 0.0000000000000000e+00  2.6111995478208614e-02 -7.0160027159476432e-02 0.0000000000000000e+00  2.6210120858158187e-02 -6.9972966014040738e-02 0.0000000000000000e+00  2.6294070536980716e-02 -6.9810815993798431e-02 0.0000000000000000e+00  2.6370734477599030e-02 -6.9676969968771957e-02 0.0000000000000000e+00  2.6448087204076924e-02 -6.9573877675137175e-02 0.0000000000000000e+00  2.6534957414320832e-02 -6.9502667736792881e-02 0.0000000000000000e+00  2.6641286359698757e-02 -6.9462876621912861e-02 0.0000000000000000e+00  2.6776777662942078e-02 -6.9449565242650418e-02 0.0000000000000000e+00  2.6947299067122291e-02 -6.9453381163125841e-02 0.0000000000000000e+00  5.4330603669607389e-02 -1.4720197011495648e-01 0.0000000000000000e+00  5.4231518291386588e-02 -1.4539757205142650e-01 0.0000000000000000e+00  5.4125361329381484e-02 -1.4357474269649695e-01 0.0000000000000000e+00  5.4007092493588787e-02 -1.4172376846418525e-01 0.0000000000000000e+00  5.3870311970221359e-02 -1.3984106603394802e-01 0.0000000000000000e+00  5.3710754941746264e-02 -1.3792752604431904e-01 0.0000000000000000e+00  5.3525981135985404e-02 -1.3598636740001688e-01 0.0000000000000000e+00  5.3314800940845897e-02 -1.3402249188448656e-01 0.0000000000000000e+00  5.3078039854738579e-02 -1.3204154686075747e-01 0.0000000000000000e+00  5.2817484288879148e-02 -1.3004927801584124e-01 0.0000000000000000e+00  5.2535781569402883e-02 -1.2805111542250214e-01 0.0000000000000000e+00  5.2235886641463516e-02 -1.2605219332986684e-01 0.0000000000000000e+00  5.1920858124599858e-02 -1.2405719812795980e-01 0.0000000000000000e+00  5.1593397398137140e-02 -1.2207042067445292e-01 0.0000000000000000e+00  5.1255576225528864e-02 -1.2009600152671232e-01 0.0000000000000000e+00  5.0908613718989110e-02 -1.1813828608202440e-01 0.0000000000000000e+00  5.0553099911489492e-02 -1.1620194490159991e-01 0.0000000000000000e+00  5.0188377345217895e-02 -1.1429288826101107e-01 0.0000000000000000e+00  4.9813295822725888e-02 -1.1241805467874492e-01 0.0000000000000000e+00  4.9425971046183674e-02 -1.1058638054189614e-01 0.0000000000000000e+00  4.9024105901629457e-02 -1.0880960970548219e-01 0.0000000000000000e+00  4.8605154847698818e-02 -1.0710411027392967e-01 0.0000000000000000e+00  4.8166594149494334e-02 -1.0549778041275901e-01 0.0000000000000000e+00  4.7718509339548680e-02 -1.0404522821561793e-01 0.0000000000000000e+00  4.7278606258370992e-02 -1.0271409591274042e-01 0.0000000000000000e+00  4.6846828265854262e-02 -1.0146851477456009e-01 0.0000000000000000e+00  4.6421536513886155e-02 -1.0029415601056166e-01 0.0000000000000000e+00  4.6002242286794510e-02 -9.9181190120432458e-02 0.0000000000000000e+00  4.5588692802490366e-02 -9.8122460703903541e-02 0.0000000000000000e+00  4.5181401249934555e-02 -9.7112285008956786e-02 0.0000000000000000e+00  4.4781222340294920e-02 -9.6145685727065833e-02 0.0000000000000000e+00  4.4389474956964985e-02 -9.5218073084268065e-02 0.0000000000000000e+00  4.4007770352630850e-02 -9.4324961405702068e-02 0.0000000000000000e+00  4.3637738930783147e-02 -9.3461974404176945e-02 0.0000000000000000e+00  4.3281171167503095e-02 -9.2624522282929306e-02 0.0000000000000000e+00  4.2939568259282447e-02 -9.1808034244867526e-02 0.0000000000000000e+00  4.2614187692943804e-02 -9.1008014267574378e-02 0.00000000000000