<?xml version="1.0"?>
<VTKFile type="UnstructuredGrid"  version="0.1"  >
<UnstructuredGrid>
<Piece  NumberOfPoints="12853" NumberOfCells="23493">
<Points>
<DataArray  type="Float64"  NumberOfComponents="3"  format="ascii">-3.187178156719634e-14 1.7 0  0 0 0  1.3 3 0  -3.185690647650846e-14 4.300000000000001 0  -3.187178156719634e-14 4.699999999999999 0  1.3 6 0  -3.185690647650846e-14 7.300000000000001 0  -3.187178156719634e-14 7.699999999999999 0  1.3 9 0  -3.185690647650846e-14 10.3 0  -3.187178156719634e-14 10.7 0  1.3 12 0  -3.185690647650846e-14 13.3 0  -3.187178156719634e-14 13.7 0  1.3 15 0  -3.185690647650846e-14 16.3 0  0 18 0  18 18 0  17.99999999999997 16.3 0  17.99999999999997 13.7 0  17.99999999999997 13.3 0  17.99999999999997 10.7 0  17.99999999999997 10.3 0  17.99999999999997 7.7 0  17.99999999999997 7.3 0  17.99999999999997 4.7 0  17.99999999999997 4.3 0  17.99999999999997 1.7 0  18 0 0  4.3 3 0  7.3 3 0  10.3 3 0  4.3 6 0  7.3 6 0  10.3 6 0  13.3 3 0  16.3 3 0  13.3 6 0  16.3 6 0  4.3 9 0  4.3 12 0  7.3 9 0  10.3 9 0  7.3 12 0  10.3 12 0  4.3 15 0  7.3 15 0  10.3 15 0  13.3 9 0  13.3 12 0  16.3 9 0  16.3 12 0  13.3 15 0  16.3 15 0  0 1.578571428571429 0  0 1.457142857142856 0  0 1.335714285714285 0  0 1.214285714285712 0  0 1.092857142857142 0  0 0.9714285714285715 0  0 0.8499999999999979 0  0 0.7285714285714278 0  0 0.6071428571428577 0  0 0.485714285714284 0  0 0.3642857142857139 0  0 0.2428571428571438 0  0 0.1214285714285701 0  0.1274222824284281 1.706259855326144 0  0.2536174186209668 1.7249791354758 0  0.3773700804308007 1.755977563548128 0  0.497488462074617 1.798956607735327 0  0.6128157578737968 1.853502356347138 0  0.7222413029254824 1.919089504006691 0  0.8247112694127393 1.995086410628442 0  0.9192388155425116 2.080761184457488 0  1.004913589371558 2.17528873058726 0  1.080910495993309 2.277758697074517 0  1.146497643652861 2.387184242126203 0  1.201043392264673 2.502511537925383 0  1.244022436451871 2.622629919569199 0  1.275020864524199 2.746382581379033 0  1.293740144673856 2.872577717571571 0  1.293740144673856 3.127422282428428 0  1.2750208645242 3.253617418620966 0  1.244022436451872 3.3773700804308 0  1.201043392264673 3.497488462074616 0  1.146497643652862 3.612815757873796 0  1.08091049599331 3.722241302925481 0  1.00491358937156 3.824711269412738 0  0.9192388155425134 3.91923881554251 0  0.8247112694127412 4.004913589371556 0  0.7222413029254846 4.080910495993308 0  0.6128157578737984 4.146497643652861 0  0.4974884620746181 4.201043392264673 0  0.3773700804308024 4.244022436451871 0  0.2536174186209674 4.275020864524199 0  0.127422282428429 4.293740144673856 0  0 4.6 0  0 4.5 0  0 4.4 0  0.1274222824284281 4.706259855326143 0  0.2536174186209668 4.724979135475801 0  0.3773700804308007 4.755977563548129 0  0.497488462074617 4.798956607735327 0  0.6128157578737968 4.853502356347138 0  0.7222413029254824 4.919089504006691 0  0.8247112694127393 4.995086410628442 0  0.9192388155425116 5.080761184457488 0  1.004913589371558 5.17528873058726 0  1.080910495993309 5.277758697074518 0  1.146497643652861 5.387184242126203 0  1.201043392264673 5.502511537925383 0  1.244022436451871 5.622629919569198 0  1.275020864524199 5.746382581379033 0  1.293740144673856 5.872577717571572 0  1.293740144673856 6.127422282428428 0  1.2750208645242 6.253617418620967 0  1.244022436451872 6.377370080430801 0  1.201043392264673 6.497488462074616 0  1.146497643652862 6.612815757873795 0  1.08091049599331 6.722241302925481 0  1.00491358937156 6.824711269412737 0  0.9192388155425134 6.91923881554251 0  0.8247112694127412 7.004913589371556 0  0.7222413029254846 7.080910495993308 0  0.6128157578737984 7.146497643652861 0  0.4974884620746181 7.201043392264673 0  0.3773700804308024 7.244022436451871 0  0.2536174186209674 7.275020864524199 0  0.127422282428429 7.293740144673856 0  0 7.6 0  0 7.5 0  0 7.4 0  0.1274222824284281 7.706259855326143 0  0.2536174186209668 7.724979135475801 0  0.3773700804308007 7.755977563548129 0  0.497488462074617 7.798956607735327 0  0.6128157578737968 7.853502356347138 0  0.7222413029254824 7.919089504006691 0  0.8247112694127393 7.995086410628442 0  0.9192388155425116 8.080761184457488 0  1.004913589371558 8.17528873058726 0  1.080910495993309 8.277758697074518 0  1.146497643652861 8.387184242126203 0  1.201043392264673 8.502511537925383 0  1.244022436451871 8.622629919569199 0  1.275020864524199 8.746382581379033 0  1.293740144673856 8.872577717571572 0  1.293740144673856 9.127422282428428 0  1.2750208645242 9.253617418620966 0  1.244022436451872 9.377370080430801 0  1.201043392264673 9.497488462074616 0  1.146497643652862 9.612815757873795 0  1.08091049599331 9.722241302925481 0  1.00491358937156 9.824711269412738 0  0.9192388155425134 9.91923881554251 0  0.8247112694127412 10.00491358937156 0  0.7222413029254846 10.08091049599331 0  0.6128157578737984 10.14649764365286 0  0.4974884620746181 10.20104339226467 0  0.3773700804308024 10.24402243645187 0  0.2536174186209674 10.2750208645242 0  0.127422282428429 10.29374014467386 0  0 10.6 0  0 10.5 0  0 10.4 0  0.1274222824284281 10.70625985532614 0  0.2536174186209668 10.7249791354758 0  0.3773700804308007 10.75597756354813 0  0.497488462074617 10.79895660773533 0  0.6128157578737968 10.85350235634714 0  0.7222413029254824 10.91908950400669 0  0.8247112694127393 10.99508641062844 0  0.9192388155425116 11.08076118445749 0  1.004913589371558 11.17528873058726 0  1.080910495993309 11.27775869707452 0  1.146497643652861 11.3871842421262 0  1.201043392264673 11.50251153792538 0  1.244022436451871 11.6226299195692 0  1.275020864524199 11.74638258137903 0  1.293740144673856 11.87257771757157 0  1.293740144673856 12.12742228242843 0  1.2750208645242 12.25361741862097 0  1.244022436451872 12.3773700804308 0  1.201043392264673 12.49748846207462 0  1.146497643652862 12.6128157578738 0  1.08091049599331 12.72224130292548 0  1.00491358937156 12.82471126941274 0  0.9192388155425134 12.91923881554251 0  0.8247112694127412 13.00491358937156 0  0.7222413029254846 13.08091049599331 0  0.6128157578737984 13.14649764365286 0  0.4974884620746181 13.20104339226467 0  0.3773700804308024 13.24402243645187 0  0.2536174186209674 13.2750208645242 0  0.127422282428429 13.29374014467386 0  0 13.6 0  0 13.5 0  0 13.4 0  0.1274222824284281 13.70625985532614 0  0.2536174186209668 13.7249791354758 0  0.3773700804308007 13.75597756354813 0  0.497488462074617 13.79895660773533 0  0.6128157578737968 13.85350235634714 0  0.7222413029254824 13.91908950400669 0  0.8247112694127393 13.99508641062844 0  0.9192388155425116 14.08076118445749 0  1.004913589371558 14.17528873058726 0  1.080910495993309 14.27775869707452 0  1.146497643652861 14.3871842421262 0  1.201043392264673 14.50251153792538 0  1.244022436451871 14.6226299195692 0  1.275020864524199 14.74638258137903 0  1.293740144673856 14.87257771757157 0  1.293740144673856 15.12742228242843 0  1.2750208645242 15.25361741862097 0  1.244022436451872 15.3773700804308 0  1.201043392264673 15.49748846207462 0  1.146497643652862 15.6128157578738 0  1.08091049599331 15.72224130292548 0  1.00491358937156 15.82471126941274 0  0.9192388155425134 15.91923881554251 0  0.8247112694127412 16.00491358937156 0  0.7222413029254846 16.08091049599331 0  0.6128157578737984 16.14649764365286 0  0.4974884620746181 16.20104339226467 0  0.3773700804308024 16.24402243645187 0  0.2536174186209674 16.2750208645242 0  0.127422282428429 16.29374014467385 0  0 17.87857142857143 0  0 17.75714285714286 0  0 17.63571428571429 0  0 17.51428571428571 0  0 17.39285714285714 0  0 17.27142857142857 0  0 17.15 0  0 17.02857142857143 0  0 16.90714285714286 0  0 16.78571428571428 0  0 16.66428571428571 0  0 16.54285714285714 0  0 16.42142857142857 0  17.8705035971223 18 0  17.7410071942446 18 0  17.61151079136691 18 0  17.48201438848921 18 0  17.35251798561151 18 0  17.22302158273381 18 0  17.09352517985612 18 0  16.96402877697842 18 0  16.83453237410072 18 0  16.70503597122302 18 0  16.57553956834532 18 0  16.44604316546762 18 0  16.31654676258993 18 0  16.18705035971223 18 0  16.05755395683453 18 0  15.92805755395683 18 0  15.79856115107913 18 0  15.66906474820144 18 0  15.53956834532374 18 0  15.41007194244604 18 0  15.28057553956834 18 0  15.15107913669064 18 0  15.02158273381295 18 0  14.89208633093525 18 0  14.76258992805755 18 0  14.63309352517985 18 0  14.50359712230215 18 0  14.37410071942446 18 0  14.24460431654676 18 0  14.11510791366906 18 0  13.98561151079136 18 0  13.85611510791366 18 0  13.72661870503597 18 0  13.59712230215827 18 0  13.46762589928057 18 0  13.33812949640287 18 0  13.20863309352517 18 0  13.07913669064748 18 0  12.94964028776977 18 0  12.82014388489208 18 0  12.69064748201438 18 0  12.56115107913668 18 0  12.43165467625898 18 0  12.30215827338128 18 0  12.17266187050359 18 0  12.04316546762589 18 0  11.91366906474819 18 0  11.78417266187049 18 0  11.65467625899279 18 0  11.52517985611509 18 0  11.3956834532374 18 0  11.2661870503597 18 0  11.136690647482 18 0  11.0071942446043 18 0  10.8776978417266 18 0  10.7482014388489 18 0  10.6187050359712 18 0  10.48920863309351 18 0  10.35971223021581 18 0  10.23021582733811 18 0  10.10071942446041 18 0  9.971223021582714 18 0  9.841726618705016 18 0  9.712230215827317 18 0  9.582733812949618 18 0  9.453237410071921 18 0  9.323741007194224 18 0  9.194244604316525 18 0  9.064748201438828 18 0  8.935251798561131 18 0  8.805755395683434 18 0  8.676258992805735 18 0  8.546762589928038 18 0  8.417266187050341 18 0  8.287769784172642 18 0  8.158273381294947 18 0  8.028776978417248 18 0  7.899280575539549 18 0  7.769784172661854 18 0  7.640287769784155 18 0  7.510791366906458 18 0  7.381294964028761 18 0  7.251798561151062 18 0  7.122302158273365 18 0  6.992805755395668 18 0  6.86330935251797 18 0  6.733812949640273 18 0  6.604316546762576 18 0  6.474820143884878 18 0  6.34532374100718 18 0  6.215827338129483 18 0  6.086330935251786 18 0  5.956834532374087 18 0  5.827338129496392 18 0  5.697
[...]
<PointData  Vectors="f_21"> 
<DataArray  type="Float64"  Name="f_21"  NumberOfComponents="3" format="ascii">-1.7768050856498544e-03 -1.3286701310525255e-03 0.0000000000000000e+00  0.0000000000000000e+00 0.0000000000000000e+00 0.0000000000000000e+00  -3.1921021443769367e-03 -1.1682128055724821e-02 0.0000000000000000e+00  -4.6812745595667046e-03 -2.0517371062801180e-02 0.0000000000000000e+00  -4.7007765700752225e-03 -2.0517145356340156e-02 0.0000000000000000e+00  -3.1609677308976499e-03 -2.9072343639724378e-02 0.0000000000000000e+00  -4.9163185678992283e-04 -3.5303038204141809e-02 0.0000000000000000e+00  3.9146681697445606e-04 -3.5303698085769712e-02 0.0000000000000000e+00  4.9885866168784369e-03 -4.7086181926689716e-02 0.0000000000000000e+00  9.0498844386968560e-03 -5.3048400690758613e-02 0.0000000000000000e+00  1.0181993380210938e-02 -5.3049676169273391e-02 0.0000000000000000e+00  1.6363248541038961e-02 -6.5708459818476131e-02 0.0000000000000000e+00  2.3792158900861334e-02 -6.8876021488275069e-02 0.0000000000000000e+00  2.5910529573169576e-02 -6.8881390658410493e-02 0.0000000000000000e+00  3.6450523668729536e-02 -8.5506195223519155e-02 0.0000000000000000e+00  4.1961627951671812e-02 -1.0096634815105712e-01 0.0000000000000000e+00  3.9333734339262807e-02 -1.0363546645631083e-01 0.0000000000000000e+00  8.2119419807322389e-02 -2.1915750508081949e-01 0.0000000000000000e+00  4.4609344814349361e-02 -2.1598455485390008e-01 0.0000000000000000e+00  3.6665407191261608e-02 -1.4308505142858918e-01 0.0000000000000000e+00  3.6287672827242087e-02 -1.4308506955466291e-01 0.0000000000000000e+00  2.9299761159260730e-02 -1.1587850738413716e-01 0.0000000000000000e+00  2.6714765706562199e-02 -1.1587085807341597e-01 0.0000000000000000e+00  1.8972269520261233e-02 -7.5386546920437544e-02 0.0000000000000000e+00  1.7998413163191576e-02 -7.5385950348837619e-02 0.0000000000000000e+00  1.2304824166539911e-02 -4.2889023023672715e-02 0.0000000000000000e+00  1.0998329428123774e-02 -4.2887415187403417e-02 0.0000000000000000e+00  2.9891724938456749e-03 -2.3446058912484006e-03 0.0000000000000000e+00  0.0000000000000000e+00 0.0000000000000000e+00 0.0000000000000000e+00  -1.8522793956985044e-03 -1.1775385500099229e-02 0.0000000000000000e+00  -8.7154214479150409e-04 -1.1900264724579470e-02 0.0000000000000000e+00  -5.3467246509884109e-04 -1.3240079628951646e-02 0.0000000000000000e+00  2.2878891990226778e-04 -3.0064578355349456e-02 0.0000000000000000e+00  2.0385542017268793e-03 -3.0983875619648243e-02 0.0000000000000000e+00  4.4735961567725210e-03 -3.4994969619601329e-02 0.0000000000000000e+00  5.1826724292594172e-04 -1.5969640900864231e-02 0.0000000000000000e+00  2.3546941831434505e-03 -2.0454291137131535e-02 0.0000000000000000e+00  6.0757627550292424e-03 -4.3155371095419622e-02 0.0000000000000000e+00  1.1641409722505451e-02 -5.4558438721885101e-02 0.0000000000000000e+00  7.2618139307161324e-03 -4.8742979672441726e-02 0.0000000000000000e+00  2.0141142087855217e-02 -6.7325984325520644e-02 0.0000000000000000e+00  1.0159439491123532e-02 -5.0004802965969250e-02 0.0000000000000000e+00  1.1432822163358610e-02 -5.6682351190054256e-02 0.0000000000000000e+00  2.0968860637799208e-02 -6.8592480586240540e-02 0.0000000000000000e+00  2.3487910520403950e-02 -7.7809184649426294e-02 0.0000000000000000e+00  3.7704056127062617e-02 -8.5839595145532896e-02 0.0000000000000000e+00  3.9567239702139316e-02 -8.6052659946068547e-02 0.0000000000000000e+00  3.7640311002815216e-02 -9.7745845419453761e-02 0.0000000000000000e+00  1.5447519332264010e-02 -6.9724692444748437e-02 0.0000000000000000e+00  2.2303360860028855e-02 -9.6192066719970923e-02 0.0000000000000000e+00  1.6782149011752449e-02 -8.8669685283031124e-02 0.0000000000000000e+00  3.1442532699636642e-02 -1.2370316168987525e-01 0.0000000000000000e+00  3.9024616841405124e-02 -1.2008112651828480e-01 0.0000000000000000e+00  2.7335382429050877e-02 -1.6128308434541011e-01 0.0000000000000000e+00  -1.8313900960860025e-03 -1.3317440941189350e-03 0.0000000000000000e+00  -1.8712012734914082e-03 -1.3430343064927094e-03 0.0000000000000000e+00  -1.8800342827937444e-03 -1.3521671165824553e-03 0.0000000000000000e+00  -1.8547376322903236e-03 -1.3508100564723568e-03 0.0000000000000000e+00  -1.7971438712228898e-03 -1.3333036839575710e-03 0.0000000000000000e+00  -1.7104922925582648e-03 -1.2971645874726454e-03 0.0000000000000000e+00  -1.5976253122866972e-03 -1.2415977775281216e-03 0.0000000000000000e+00  -1.4606709337833803e-03 -1.1660495373511208e-03 0.0000000000000000e+00  -1.3006624338813713e-03 -1.0698365200316649e-03 0.0000000000000000e+00  -1.1174971878945993e-03 -9.5128399053500355e-04 0.0000000000000000e+00  -9.0968344059900693e-04 -8.0694853055124762e-04 0.0000000000000000e+00  -6.7355396709982288e-04 -6.2928265453621125e-04 0.0000000000000000e+00  -3.9418334438609076e-04 -4.0027013141797138e-04 0.0000000000000000e+00  -1.7699604724533491e-03 -1.3840587557741111e-03 0.0000000000000000e+00  -1.7450367959852449e-03 -1.4604787294712547e-03 0.0000000000000000e+00  -1.7091224414649965e-03 -1.5880605756151067e-03 0.0000000000000000e+00  -1.6760965058909446e-03 -1.7847306852073624e-03 0.0000000000000000e+00  -1.6532781709202411e-03 -2.0589870436333664e-03 0.0000000000000000e+00  -1.6496832601589552e-03 -2.4169141398217766e-03 0.0000000000000000e+00  -1.6719881444507555e-03 -2.8617333261692808e-03 0.0000000000000000e+00  -1.7241719418980201e-03 -3.3971514491332702e-03 0.0000000000000000e+00  -1.8099984360582205e-03 -4.0275601355366127e-03 0.0000000000000000e+00  -1.9297313108124841e-03 -4.7599896652057395e-03 0.0000000000000000e+00  -2.0822820291237910e-03 -5.6048142025176117e-03 0.0000000000000000e+00  -2.2643316473908472e-03 -6.5735837777289282e-03 0.0000000000000000e+00  -2.4717525420967896e-03 -7.6788663109450712e-03 0.0000000000000000e+00  -2.7010675463868842e-03 -8.9202572144581101e-03 0.0000000000000000e+00  -2.9461262776906950e-03 -1.0269773948251924e-02 0.0000000000000000e+00  -3.4117468773241524e-03 -1.3075390969460412e-02 0.0000000000000000e+00  -3.5840604813731050e-03 -1.4386225247827613e-02 0.0000000000000000e+00  -3.7005717451276611e-03 -1.5579305908481075e-02 0.0000000000000000e+00  -3.7730954485248685e-03 -1.6642375206676031e-02 0.0000000000000000e+00  -3.8307071758182073e-03 -1.7579880980587631e-02 0.0000000000000000e+00  -3.9015403552370609e-03 -1.8394690742573560e-02 0.0000000000000000e+00  -4.0031555759047497e-03 -1.9081379180982478e-02 0.0000000000000000e+00  -4.1354786663456095e-03 -1.9630009459561556e-02 0.0000000000000000e+00  -4.2861049451330740e-03 -2.0033636376837347e-02 0.0000000000000000e+00  -4.4315998317631649e-03 -2.0296197332011490e-02 0.0000000000000000e+00  -4.5491791379700117e-03 -2.0438395790938330e-02 0.0000000000000000e+00  -4.6257675398958843e-03 -2.0496218158122612e-02 0.0000000000000000e+00  -4.6646590140997203e-03 -2.0509488850479773e-02 0.0000000000000000e+00  -4.6783389463005611e-03 -2.0510609607020162e-02 0.0000000000000000e+00  -4.6811528525250480e-03 -2.0512687786766782e-02 0.0000000000000000e+00  -4.6951981968414826e-03 -2.0517116083789238e-02 0.0000000000000000e+00  -4.6901623265763149e-03 -2.0517259652643820e-02 0.0000000000000000e+00  -4.6854434787833923e-03 -2.0517401299122728e-02 0.0000000000000000e+00  -4.7012590140118726e-03 -2.0509407321289721e-02 0.0000000000000000e+00  -4.7002842018834933e-03 -2.0499179144236390e-02 0.0000000000000000e+00  -4.6895647758910209e-03 -2.0487979551254872e-02 0.0000000000000000e+00  -4.6552694119104407e-03 -2.0490076383922473e-02 0.0000000000000000e+00  -4.5830982965597540e-03 -2.0535889650857956e-02 0.0000000000000000e+00  -4.4730389956294577e-03 -2.0668063380300025e-02 0.0000000000000000e+00  -4.3348769199387377e-03 -2.0919818336288722e-02 0.0000000000000000e+00  -4.1929912745286724e-03 -2.1313590368285885e-02 0.0000000000000000e+00  -4.0694387020562715e-03 -2.1852315652849646e-02 0.0000000000000000e+00  -3.9775570459881799e-03 -2.2528348966769449e-02 0.0000000000000000e+00  -3.9156842684443588e-03 -2.3331245303734361e-02 0.0000000000000000e+00  -3.8637356376209574e-03 -2.4252402015044239e-02 0.0000000000000000e+00  -3.7905647553532784e-03 -2.5295093598665365e-02 0.0000000000000000e+00  -3.6601113263373449e-03 -2.6457375801711418e-02 0.0000000000000000e+00  -3.4506359333637215e-03 -2.7730559750619489e-02 0.0000000000000000e+00  -2.8085744840620533e-03 -3.0418638878951878e-02 0.0000000000000000e+00  -2.4219434994515138e-03 -3.1695352210622925e-02 0.0000000000000000e+00  -2.0282757298703616e-03 -3.2855752320311862e-02 0.0000000000000000e+00  -1.6558905275929658e-03 -3.3873118760884800e-02 0.0000000000000000e+00  -1.3320552098171059e-03 -3.4745431409935273e-02 0.0000000000000000e+00  -1.0792111761828403e-03 -3.5467902004175787e-02 0.0000000000000000e+00  -9.0608947647146645e-04 -3.6031384933242323e-02 0.0000000000000000e+00  -8.0421112292602872e-04 -3.6425432498121704e-02 0.0000000000000000e+00  -7.5471079053400405e-04 -3.6644224403340614e-02 0.0000000000000000e+00  -7.2908420024464786e-04 -3.6694232516270256e-02 0.0000000000000000e+00  -7.0151655641368239e-04 -3.6600147438570464e-02 0.0000000000000000e+00  -6.5771711463292765e-04 -3.6402693256593691e-02 0.0000000000000000e+00  -6.0124564785055492e-04 -3.6146526566093032e-02 0.0000000000000000e+00  -5.4546530896934281e-04 -3.5868661277613637e-02 0.0000000000000000e+00  -5.0593961358493997e-04 -3.5585916745914943e-02 0.0000000000000000e+00  1.7139237269900436e-04 -3.5303431377234698e-02 0.0000000000000000e+00  -4.9237495777195152e-05 -3.5303371626437735e-02 0.0000000000000000e+00  -2.7015334248627331e-04 -3.5303309156496571e-02 0.0000000000000000e+00  4.0481320460235943e-04 -3.5583455161682750e-02 0.0000000000000000e+00  4.4794125434127150e-04 -3.5857936789671252e-02 0.0000000000000000e+00  5.2911596110924181e-04 -3.6126300857105116e-02 0.0000000000000000e+00  6.6173650234745010e-04 -3.6401190814358352e-02 0.0000000000000000e+00  8.5890872931049407e-04 -3.6711828153858775e-02 0.0000000000000000e+00  1.1182189771960199e-03 -3.7099183181781445e-02 0.0000000000000000e+00  1.4272493977388516e-03 -3.7593468976149132e-02 0.0000000000000000e+00  1.7597020532528109e-03 -3.8213160084295449e-02 0.0000000000000000e+00  2.0933325358406855e-03 -3.8957478931685510e-02 0.0000000000000000e+00  2.4160196269535812e-03 -3.9816562207863435e-02 0.0000000000000000e+00  2.7311752363539570e-03 -4.0779729973060383e-02 0.0000000000000000e+00  3.0593316118341270e-03 -4.1840839582884273e-02 0.0000000000000000e+00  3.4299268962879794e-03 -4.3006108067316834e-02 0.0000000000000000e+00  3.8721167800982339e-03 -4.4277846115867360e-02 0.0000000000000000e+00  4.3969457684098576e-03 -4.5651030359083467e-02 0.0000000000000000e+00  5.6118452031660281e-03 -4.8519000975396326e-02 0.0000000000000000e+00  6.2265326288066056e-03 -4.9867954621577351e-02 0.0000000000000000e+00  6.8052928808699656e-03 -5.1087569846139304e-02 0.0000000000000000e+00  7.3261719417486697e-03 -5.2148945815310016e-02 0.0000000000000000e+00  7.7666027651971210e-03 -5.3045907053427051e-02 0.0000000000000000e+00  8.1116305570473907e-03 -5.3777756701885879e-02 0.0000000000000000e+00  8.3580031299309940e-03 -5.4333935311857831e-02 0.0000000000000000e+00  8.5180889624327048e-03 -5.4704288431370041e-02 0.0000000000000000e+00  8.6168466946203292e-03 -5.4884050397996549e-02 0.0000000000000000e+00  8.6844148359997899e-03 -5.4882015347947878e-02 0.0000000000000000e+00  8.7478310680773764e-03 -5.4724875355980682e-02 0.0000000000000000e+00  8.8232701174871721e-03 -5.4457786522269125e-02 0.0000000000000000e+00  8.9052881374869931e-03 -5.4127327603834471e-02 0.0000000000000000e+00  8.9801399908372159e-03 -5.3772059647200214e-02 0.0000000000000000e+00  9.0314771814855536e-03 -5.3410640648698562e-02 0.0000000000000000e+00  9.8996885090403483e-03 -5.3049253283263334e-02 0.0000000000000000e+00  9.6168110549527674e-03 -5.3049043547113484e-02 0.0000000000000000e+00  9.3336354270022841e-03 -5.3048829304035663e-02 0.0000000000000000e+00  1.0199033844723218e-02 -5.3408719613473550e-02 0.0000000000000000e+00  1.0253687886800490e-02 -5.3761674094940405e-02 0.0000000000000000e+00  1.0354323569199094e-02 -5.4106964005720813e-02 0.0000000000000000e+00  1.0514621024673217e-02 -5.4456957743705535e-02 0.0000000000000000e+00  1.0747933373618750e-02 -5.4840828217760387e-02 0.0000000000000000e+00  1.1051812362174855e-02 -5.5299879238379319e-02 0.0000000000000000e+00  1.1412975523596592e-02 -5.5864238067089102e-02 0.0000000000000000e+00  1.1805180273338869e-02 -5.6550376629560445e-02 0.0000000000000000e+00  1.2208518472469627e-02 -5.7355615265224570e-02 0.0000000000000000e+00  1.2613922612928501e-02 -5.8269238320955666e-02 0.0000000000000000e+00  1.3030692784475047e-02 -5.9278744351922458e-02 0.0000000000000000e+00  1.3486346516387415e-02 -6.0379533033536367e-02 0.0000000000000000e+00  1.4020809957257080e-02 -6.1574976562554430e-02 0.0000000000000000e+00  1.4672191387945644e-02 -6.2870357904783236e-02 0.0000000000000000e+00  1.5458966695066648e-02 -6.4260652251696332e-02 0.0000000000000000e+00  1.7335325340730064e-02 -6.7148498295845335e-02 0.0000000000000000e+00  1.8312611257308719e-02 -6.8493918748414651e-02 0.0000000000000000e+00  1.9248017264840187e-02 -6.9693024300051351e-02 0.0000000000000000e+00  2.0105544179932325e-02 -7.0710365701752487e-02 0.0000000000000000e+00  2.0854510751895341e-02 -7.1534531107779964e-02 0.0000000000000000e+00  2.1477172552463543e-02 -7.2161039692111281e-02 0.0000000000000000e+00  2.1971093469765852e-02 -7.2575851462792329e-02 0.0000000000000000e+00  2.2351865560064653e-02 -7.2768021734010729e-02 0.0000000000000000e+00  2.2647991899402031e-02 -7.2734731209767950e-02 0.0000000000000000e+00  2.2891740830913061e-02 -7.2489447102039528e-02 0.0000000000000000e+00  2.3110201781917559e-02 -7.2065118350400525e-02 0.0000000000000000e+00  2.3317635494602092e-02 -7.1513345785240129e-02 0.0000000000000000e+00  2.3505705900874974e-02 -7.0885865759310787e-02 0.0000000000000000e+00  2.3658149481715310e-02 -7.0225065021690819e-02 0.0000000000000000e+00  2.3757008925319359e-02 -6.9552449271362851e-02 0.0000000000000000e+00  2.5381722309370431e-02 -6.8879960225046805e-02 0.0000000000000000e+00  2.4852311303699588e-02 -6.8878713877618222e-02 0.0000000000000000e+00  2.4322538054843884e-02 -6.8877461904819623e-02 0.0000000000000000e+00  2.5941705869777464e-02 -6.9554604019375590e-02 0.0000000000000000e+00  2.6041170728379418e-02 -7.0218683588418276e-02 0.0000000000000000e+00  2.6217069962566009e-02 -7.0868779594347120e-02 0.0000000000000000e+00  2.6483007803575612e-02 -7.1514208903317153e-02 0.0000000000000000e+00  2.6852378641737416e-02 -7.2181642248369732e-02 0.0000000000000000e+00  2.7322957445371443e-02 -7.2910264266514938e-02 0.0000000000000000e+00  2.7882080000581910e-02 -7.3727961761162294e-02 0.0000000000000000e+00  2.8505547322982407e-02 -7.4648880356471783e-02 0.0000000000000000e+00  2.9177706938361962e-02 -7.5668631062863992e-02 0.0000000000000000e+00  2.9896217355806307e-02 -7.6776746359503975e-02 0.0000000000000000e+00  3.0678469467856895e-02 -7.7964618456206322e-02 0.0000000000000000e+00  3.1559126053887533e-02 -7.9235393385131969e-02 0.0000000000000000e+00  3.2578603624081083e-02 -8.0606605297745978e-02 0.0000000000000000e+00  3.3759546800197514e-02 -8.2104319980512208e-02 0.0000000000000000e+00  3.5080476030953781e-02 -8.3744697958959433e-02 0.0000000000000000e+00  3.7741592825204028e-02 -8.7325809555508074e-02 0.0000000000000000e+00  3.8844449815891816e-02 -8.9094832020205156e-02 0.0000000000000000e+00  3.9722248300321172e-02 -9.0743400502985724e-02 0.0000000000000000e+00  4.0393461481970074e-02 -9.2217979961919772e-02 0.0000000000000000e+00  4.0903259842286946e-02 -9.3513475769979801e-02 0.0000000000000000e+00  4.1292353588290705e-02 -9.4651720618123228e-02 0.0000000000000000e+00  4.1589713842523017e-02 -9.5657727418439059e-02 0.0000000000000000e+00  4.1813188304196794e-02 -9.6556774779188240e-02 0.0000000000000000e+00  4.1972389161115273e-02 -9.7368286095068965e-02 0.0000000000000000e+00  4.2074326540204689e-02 -9.8103908774066870e-02 0.0000000000000000e+00  4.2123663139787201e-02 -9.8769367386393525e-02 0.0000000000000000e+00  4.2126196086071217e-02 -9.9362682710588665e-02 0.0000000000000000e+00  4.2092608733168939e-02 -9.9878875957584545e-02 0.0000000000000000e+00  4.2035516858586877e-02 -1.0031184241714725e-01 0.0000000000000000e+00  4.1982365985929117e-02 -1.0066413112828008e-01 0.0000000000000000e+00  3.9623004639919926e-02 -1.0330253236236013e-01 0.0000000000000000e+00  3.9894083572319113e-02 -1.0296258811115500e-01 0.0000000000000000e+00  4.0132678723873563e-02 -1.0262417387401052e-01 0.0000000000000000e+00  4.0334550768733643e-02 -1.0229812578426187e-01 0.0000000000000000e+00  4.0501612700371788e-02 -1.0199448273039992e-01 0.0000000000000000e+00  4.0639665622473016e-02 -1.0172101251357309e-01 0.0000000000000000e+00  4.0756987203230920e-02 -1.0148399223710472e-01 0.0000000000000000e+00  4.0863674265773114e-02 -1.0128837583200294e-01 0.0000000000000000e+00  4.0971405574281278e-02 -1.0113773509913127e-01 0.0000000000000000e+00  4.1093104027959952e-02 -1.0103370893743394e-01 0.0000000000000000e+00  4.1243314266427702e-02 -1.0097560009804002e-01 0.0000000000000000e+00  4.1436219033302829e-02 -1.0095616267943192e-01 0.0000000000000000e+00  4.1680371453874335e-02 -1.0096170225588891e-01 0.0000000000000000e+00  8.1990218381394475e-02 -2.1643425087983270e-01 0.0000000000000000e+00  8.1851987824730132e-02 -2.1371902465091216e-01 0.0000000000000000e+00  8.1703366994478263e-02 -2.1097928124273735e-01 0.0000000000000000e+00  8.1536767010533709e-02 -2.0819972723362831e-01 0.0000000000000000e+00  8.1342550343423387e-02 -2.0537465261062390e-01 0.0000000000000000e+00  8.1114202472760494e-02 -2.0250520760827093e-01 0.0000000000000000e+00  8.0847918137472802e-02 -1.9959609575335882e-01 0.0000000000000000e+00  8.0541728746470212e-02 -1.9665459515060060e-01 0.0000000000000000e+00  8.0196673599947185e-02 -1.9368915200443618e-01 0.0000000000000000e+00  7.9815239359950163e-02 -1.9070840665658040e-01 0.0000000000000000e+00  7.9401220947420775e-02 -1.8772056428593720e-01 0.0000000000000000e+00  7.8958911915053748e-02 -1.8473342476392926e-01 0.0000000000000000e+00  7.8492808686134508e-02 -1.8175413836000404e-01 0.0000000000000000e+00  7.8006934909863157e-02 -1.7878927051352050e-01 0.0000000000000000e+00  7.7504432830674541e-02 -1.7584514829471795e-01 0.0000000000000000e+00  7.6987256817718147e-02 -1.7292837663332808e-01 0.0000000000000000e+00  7.6456432669104457e-02 -1.7004598909369409e-01 0.0000000000000000e+00  7.5911258112558402e-02 -1.6720679393128207e-01 0.0000000000000000e+00  7.5350274218206142e-02 -1.6442104948071373e-01 0.0000000000000000e+00  7.4770988727012641e-02 -1.6170186457641997e-01 0.0000000000000000e+00  7.4170307986174924e-02 -1.5906638918630422e-01 0.0000000000000000e+00  7.3544770483546337e-02 -1.5653846215379941e-01 0.0000000000000000e+00  7.2890936947644855e-02 -1.5415867954798027e-01 0.0000000000000000e+00  7.2223666022382518e-02 -1.5200657703367307e-01 0.0000000000000000e+00  7.1568887826037153e-02 -1.5003469803463546e-01 0.0000000000000000e+00  7.0926620670677107e-02 -1.4819043716923191e-01 0.0000000000000000e+00  7.0294560699898381e-02 -1.4645261199562096e-01 0.0000000000000000e+00  6.9672034076504075e-02 -1.4480659532161527e-01 0.0000000000000000e+00  6.9058663280711433e-02 -1.4324166620972814e-01 0.0000000000000000e+00  6.8455174480126307e-02 -1.4174928022417338e-01 0.0000000000000000e+00  6.7862752189094572e-02 -1.4032194619753424e-01 0.0000000000000000e+00  6.7283249831270042e-02 -1.3895277531524577e-01 0.0000000000000000e+00  6.6718927999108377e-02 -1.3763506447059062e-01 0.0000000000000000e+00  6.6172096309428427e-02 -1.3636231377397087e-01 0.0000000000000000e+00  6.5645284899001261e-02 -1.3512773966395361e-01 0.0000000000000000e+00  6.5140612732114508e-02 -1.3392461732805297e-01 0.0000000000000000e+00  6.4659873012154034e-02 -1.3274635468040336e-01 0.0000000000000000e+00