<?xml version="1.0"?>
<VTKFile type="UnstructuredGrid"  version="0.1"  >
<UnstructuredGrid>
<Piece  NumberOfPoints="12853" NumberOfCells="23493">
<Points>
<DataArray  type="Float64"  NumberOfComponents="3"  format="ascii">-3.187178156719634e-14 1.7 0  0 0 0  1.3 3 0  -3.185690647650846e-14 4.300000000000001 0  -3.187178156719634e-14 4.699999999999999 0  1.3 6 0  -3.185690647650846e-14 7.300000000000001 0  -3.187178156719634e-14 7.699999999999999 0  1.3 9 0  -3.185690647650846e-14 10.3 0  -3.187178156719634e-14 10.7 0  1.3 12 0  -3.185690647650846e-14 13.3 0  -3.187178156719634e-14 13.7 0  1.3 15 0  -3.185690647650846e-14 16.3 0  0 18 0  18 18 0  17.99999999999997 16.3 0  17.99999999999997 13.7 0  17.99999999999997 13.3 0  17.99999999999997 10.7 0  17.99999999999997 10.3 0  17.99999999999997 7.7 0  17.99999999999997 7.3 0  17.99999999999997 4.7 0  17.99999999999997 4.3 0  17.99999999999997 1.7 0  18 0 0  4.3 3 0  7.3 3 0  10.3 3 0  4.3 6 0  7.3 6 0  10.3 6 0  13.3 3 0  16.3 3 0  13.3 6 0  16.3 6 0  4.3 9 0  4.3 12 0  7.3 9 0  10.3 9 0  7.3 12 0  10.3 12 0  4.3 15 0  7.3 15 0  10.3 15 0  13.3 9 0  13.3 12 0  16.3 9 0  16.3 12 0  13.3 15 0  16.3 15 0  0 1.578571428571429 0  0 1.457142857142856 0  0 1.335714285714285 0  0 1.214285714285712 0  0 1.092857142857142 0  0 0.9714285714285715 0  0 0.8499999999999979 0  0 0.7285714285714278 0  0 0.6071428571428577 0  0 0.485714285714284 0  0 0.3642857142857139 0  0 0.2428571428571438 0  0 0.1214285714285701 0  0.1274222824284281 1.706259855326144 0  0.2536174186209668 1.7249791354758 0  0.3773700804308007 1.755977563548128 0  0.497488462074617 1.798956607735327 0  0.6128157578737968 1.853502356347138 0  0.7222413029254824 1.919089504006691 0  0.8247112694127393 1.995086410628442 0  0.9192388155425116 2.080761184457488 0  1.004913589371558 2.17528873058726 0  1.080910495993309 2.277758697074517 0  1.146497643652861 2.387184242126203 0  1.201043392264673 2.502511537925383 0  1.244022436451871 2.622629919569199 0  1.275020864524199 2.746382581379033 0  1.293740144673856 2.872577717571571 0  1.293740144673856 3.127422282428428 0  1.2750208645242 3.253617418620966 0  1.244022436451872 3.3773700804308 0  1.201043392264673 3.497488462074616 0  1.146497643652862 3.612815757873796 0  1.08091049599331 3.722241302925481 0  1.00491358937156 3.824711269412738 0  0.9192388155425134 3.91923881554251 0  0.8247112694127412 4.004913589371556 0  0.7222413029254846 4.080910495993308 0  0.6128157578737984 4.146497643652861 0  0.4974884620746181 4.201043392264673 0  0.3773700804308024 4.244022436451871 0  0.2536174186209674 4.275020864524199 0  0.127422282428429 4.293740144673856 0  0 4.6 0  0 4.5 0  0 4.4 0  0.1274222824284281 4.706259855326143 0  0.2536174186209668 4.724979135475801 0  0.3773700804308007 4.755977563548129 0  0.497488462074617 4.798956607735327 0  0.6128157578737968 4.853502356347138 0  0.7222413029254824 4.919089504006691 0  0.8247112694127393 4.995086410628442 0  0.9192388155425116 5.080761184457488 0  1.004913589371558 5.17528873058726 0  1.080910495993309 5.277758697074518 0  1.146497643652861 5.387184242126203 0  1.201043392264673 5.502511537925383 0  1.244022436451871 5.622629919569198 0  1.275020864524199 5.746382581379033 0  1.293740144673856 5.872577717571572 0  1.293740144673856 6.127422282428428 0  1.2750208645242 6.253617418620967 0  1.244022436451872 6.377370080430801 0  1.201043392264673 6.497488462074616 0  1.146497643652862 6.612815757873795 0  1.08091049599331 6.722241302925481 0  1.00491358937156 6.824711269412737 0  0.9192388155425134 6.91923881554251 0  0.8247112694127412 7.004913589371556 0  0.7222413029254846 7.080910495993308 0  0.6128157578737984 7.146497643652861 0  0.4974884620746181 7.201043392264673 0  0.3773700804308024 7.244022436451871 0  0.2536174186209674 7.275020864524199 0  0.127422282428429 7.293740144673856 0  0 7.6 0  0 7.5 0  0 7.4 0  0.1274222824284281 7.706259855326143 0  0.2536174186209668 7.724979135475801 0  0.3773700804308007 7.755977563548129 0  0.497488462074617 7.798956607735327 0  0.6128157578737968 7.853502356347138 0  0.7222413029254824 7.919089504006691 0  0.8247112694127393 7.995086410628442 0  0.9192388155425116 8.080761184457488 0  1.004913589371558 8.17528873058726 0  1.080910495993309 8.277758697074518 0  1.146497643652861 8.387184242126203 0  1.201043392264673 8.502511537925383 0  1.244022436451871 8.622629919569199 0  1.275020864524199 8.746382581379033 0  1.293740144673856 8.872577717571572 0  1.293740144673856 9.127422282428428 0  1.2750208645242 9.253617418620966 0  1.244022436451872 9.377370080430801 0  1.201043392264673 9.497488462074616 0  1.146497643652862 9.612815757873795 0  1.08091049599331 9.722241302925481 0  1.00491358937156 9.824711269412738 0  0.9192388155425134 9.91923881554251 0  0.8247112694127412 10.00491358937156 0  0.7222413029254846 10.08091049599331 0  0.6128157578737984 10.14649764365286 0  0.4974884620746181 10.20104339226467 0  0.3773700804308024 10.24402243645187 0  0.2536174186209674 10.2750208645242 0  0.127422282428429 10.29374014467386 0  0 10.6 0  0 10.5 0  0 10.4 0  0.1274222824284281 10.70625985532614 0  0.2536174186209668 10.7249791354758 0  0.3773700804308007 10.75597756354813 0  0.497488462074617 10.79895660773533 0  0.6128157578737968 10.85350235634714 0  0.7222413029254824 10.91908950400669 0  0.8247112694127393 10.99508641062844 0  0.9192388155425116 11.08076118445749 0  1.004913589371558 11.17528873058726 0  1.080910495993309 11.27775869707452 0  1.146497643652861 11.3871842421262 0  1.201043392264673 11.50251153792538 0  1.244022436451871 11.6226299195692 0  1.275020864524199 11.74638258137903 0  1.293740144673856 11.87257771757157 0  1.293740144673856 12.12742228242843 0  1.2750208645242 12.25361741862097 0  1.244022436451872 12.3773700804308 0  1.201043392264673 12.49748846207462 0  1.146497643652862 12.6128157578738 0  1.08091049599331 12.72224130292548 0  1.00491358937156 12.82471126941274 0  0.9192388155425134 12.91923881554251 0  0.8247112694127412 13.00491358937156 0  0.7222413029254846 13.08091049599331 0  0.6128157578737984 13.14649764365286 0  0.4974884620746181 13.20104339226467 0  0.3773700804308024 13.24402243645187 0  0.2536174186209674 13.2750208645242 0  0.127422282428429 13.29374014467386 0  0 13.6 0  0 13.5 0  0 13.4 0  0.1274222824284281 13.70625985532614 0  0.2536174186209668 13.7249791354758 0  0.3773700804308007 13.75597756354813 0  0.497488462074617 13.79895660773533 0  0.6128157578737968 13.85350235634714 0  0.7222413029254824 13.91908950400669 0  0.8247112694127393 13.99508641062844 0  0.9192388155425116 14.08076118445749 0  1.004913589371558 14.17528873058726 0  1.080910495993309 14.27775869707452 0  1.146497643652861 14.3871842421262 0  1.201043392264673 14.50251153792538 0  1.244022436451871 14.6226299195692 0  1.275020864524199 14.74638258137903 0  1.293740144673856 14.87257771757157 0  1.293740144673856 15.12742228242843 0  1.2750208645242 15.25361741862097 0  1.244022436451872 15.3773700804308 0  1.201043392264673 15.49748846207462 0  1.146497643652862 15.6128157578738 0  1.08091049599331 15.72224130292548 0  1.00491358937156 15.82471126941274 0  0.9192388155425134 15.91923881554251 0  0.8247112694127412 16.00491358937156 0  0.7222413029254846 16.08091049599331 0  0.6128157578737984 16.14649764365286 0  0.4974884620746181 16.20104339226467 0  0.3773700804308024 16.24402243645187 0  0.2536174186209674 16.2750208645242 0  0.127422282428429 16.29374014467385 0  0 17.87857142857143 0  0 17.75714285714286 0  0 17.63571428571429 0  0 17.51428571428571 0  0 17.39285714285714 0  0 17.27142857142857 0  0 17.15 0  0 17.02857142857143 0  0 16.90714285714286 0  0 16.78571428571428 0  0 16.66428571428571 0  0 16.54285714285714 0  0 16.42142857142857 0  17.8705035971223 18 0  17.7410071942446 18 0  17.61151079136691 18 0  17.48201438848921 18 0  17.35251798561151 18 0  17.22302158273381 18 0  17.09352517985612 18 0  16.96402877697842 18 0  16.83453237410072 18 0  16.70503597122302 18 0  16.57553956834532 18 0  16.44604316546762 18 0  16.31654676258993 18 0  16.18705035971223 18 0  16.05755395683453 18 0  15.92805755395683 18 0  15.79856115107913 18 0  15.66906474820144 18 0  15.53956834532374 18 0  15.41007194244604 18 0  15.28057553956834 18 0  15.15107913669064 18 0  15.02158273381295 18 0  14.89208633093525 18 0  14.76258992805755 18 0  14.63309352517985 18 0  14.50359712230215 18 0  14.37410071942446 18 0  14.24460431654676 18 0  14.11510791366906 18 0  13.98561151079136 18 0  13.85611510791366 18 0  13.72661870503597 18 0  13.59712230215827 18 0  13.46762589928057 18 0  13.33812949640287 18 0  13.20863309352517 18 0  13.07913669064748 18 0  12.94964028776977 18 0  12.82014388489208 18 0  12.69064748201438 18 0  12.56115107913668 18 0  12.43165467625898 18 0  12.30215827338128 18 0  12.17266187050359 18 0  12.04316546762589 18 0  11.91366906474819 18 0  11.78417266187049 18 0  11.65467625899279 18 0  11.52517985611509 18 0  11.3956834532374 18 0  11.2661870503597 18 0  11.136690647482 18 0  11.0071942446043 18 0  10.8776978417266 18 0  10.7482014388489 18 0  10.6187050359712 18 0  10.48920863309351 18 0  10.35971223021581 18 0  10.23021582733811 18 0  10.10071942446041 18 0  9.971223021582714 18 0  9.841726618705016 18 0  9.712230215827317 18 0  9.582733812949618 18 0  9.453237410071921 18 0  9.323741007194224 18 0  9.194244604316525 18 0  9.064748201438828 18 0  8.935251798561131 18 0  8.805755395683434 18 0  8.676258992805735 18 0  8.546762589928038 18 0  8.417266187050341 18 0  8.287769784172642 18 0  8.158273381294947 18 0  8.028776978417248 18 0  7.899280575539549 18 0  7.769784172661854 18 0  7.640287769784155 18 0  7.510791366906458 18 0  7.381294964028761 18 0  7.251798561151062 18 0  7.122302158273365 18 0  6.992805755395668 18 0  6.86330935251797 18 0  6.733812949640273 18 0  6.604316546762576 18 0  6.474820143884878 18 0  6.34532374100718 18 0  6.215827338129483 18 0  6.086330935251786 18 0  5.956834532374087 18 0  5.827338129496392 18 0  5.697
[...]
<PointData  Vectors="f_21"> 
<DataArray  type="Float64"  Name="f_21"  NumberOfComponents="3" format="ascii">-5.7049625278734735e-04 -4.2688271471518012e-04 0.0000000000000000e+00  0.0000000000000000e+00 0.0000000000000000e+00 0.0000000000000000e+00  -1.0425197172180883e-03 -3.7537376434838904e-03 0.0000000000000000e+00  -1.5668796381303378e-03 -6.6346150622126213e-03 0.0000000000000000e+00  -1.5863467885748907e-03 -6.6345413423539315e-03 0.0000000000000000e+00  -1.1667472045538900e-03 -9.3501283533986932e-03 0.0000000000000000e+00  -4.5667590918277716e-04 -1.1474350644878308e-02 0.0000000000000000e+00  -2.1353839941072589e-04 -1.1474321561313828e-02 0.0000000000000000e+00  1.0911640729034250e-03 -1.5126848283879829e-02 0.0000000000000000e+00  2.2351920757248231e-03 -1.7128767611513888e-02 0.0000000000000000e+00  2.5620388378440936e-03 -1.7128795382402331e-02 0.0000000000000000e+00  4.3662007913545017e-03 -2.1076605946861632e-02 0.0000000000000000e+00  6.4703078912267962e-03 -2.2295940717358992e-02 0.0000000000000000e+00  7.0756837329020387e-03 -2.2296318799461094e-02 0.0000000000000000e+00  1.0145371672898735e-02 -2.7359287071946368e-02 0.0000000000000000e+00  1.1773319670617550e-02 -3.2245728762930415e-02 0.0000000000000000e+00  1.0898276289932474e-02 -3.3087884258247824e-02 0.0000000000000000e+00  2.4266846033077074e-02 -6.8317142262870112e-02 0.0000000000000000e+00  1.3037225234999006e-02 -6.7428078488592863e-02 0.0000000000000000e+00  1.0635972153052817e-02 -4.5111374936811950e-02 0.0000000000000000e+00  1.0479494553925311e-02 -4.5111419556817293e-02 0.0000000000000000e+00  8.5591909037332995e-03 -3.5967185561337912e-02 0.0000000000000000e+00  7.8588083323897981e-03 -3.5966795796707293e-02 0.0000000000000000e+00  5.6997404567940974e-03 -2.3665352138934437e-02 0.0000000000000000e+00  5.3928128910450818e-03 -2.3665428735766176e-02 0.0000000000000000e+00  3.7401621439054626e-03 -1.3311183526371223e-02 0.0000000000000000e+00  3.3675224370694930e-03 -1.3311178560795976e-02 0.0000000000000000e+00  9.4205243106678944e-04 -7.3749308791860315e-04 0.0000000000000000e+00  0.0000000000000000e+00 0.0000000000000000e+00 0.0000000000000000e+00  -6.1336655004364578e-04 -3.7591928500115782e-03 0.0000000000000000e+00  -3.1732688454559307e-04 -3.8006575912574612e-03 0.0000000000000000e+00  -1.9010814980152896e-04 -4.2201026382068891e-03 0.0000000000000000e+00  -1.3166864154769953e-04 -9.6097721813772751e-03 0.0000000000000000e+00  4.6953876377809299e-04 -9.8924621645307166e-03 0.0000000000000000e+00  1.1944030980198721e-03 -1.1156977478099435e-02 0.0000000000000000e+00  1.2384637793428572e-04 -5.0721026226799876e-03 0.0000000000000000e+00  7.5959638885295425e-04 -6.4237881221594255e-03 0.0000000000000000e+00  1.7964129116490319e-03 -1.3676397581275302e-02 0.0000000000000000e+00  3.4155331531771026e-03 -1.7132744073434056e-02 0.0000000000000000e+00  1.8498011328337818e-03 -1.5572003505821694e-02 0.0000000000000000e+00  5.4927907367833062e-03 -2.1498293312833542e-02 0.0000000000000000e+00  2.7165284587201454e-03 -1.5964667373463037e-02 0.0000000000000000e+00  3.1966192720625408e-03 -1.8067225762608188e-02 0.0000000000000000e+00  5.8176707196711747e-03 -2.1888077299284520e-02 0.0000000000000000e+00  6.5365224676372366e-03 -2.4795029147528878e-02 0.0000000000000000e+00  1.0609574558981399e-02 -2.7386976394100749e-02 0.0000000000000000e+00  1.1156233115179980e-02 -2.7440308743662767e-02 0.0000000000000000e+00  1.0613742117329780e-02 -3.1155336638931778e-02 0.0000000000000000e+00  4.3399801273992025e-03 -2.2119460448695189e-02 0.0000000000000000e+00  6.3665789927344991e-03 -3.0502391447628056e-02 0.0000000000000000e+00  5.0287245775140791e-03 -2.7857197346098331e-02 0.0000000000000000e+00  8.8863403152675269e-03 -3.8883747709078174e-02 0.0000000000000000e+00  1.0998470447138727e-02 -3.8098688639690508e-02 0.0000000000000000e+00  7.8829867192563262e-03 -5.0704500213561925e-02 0.0000000000000000e+00  -5.8787540373292629e-04 -4.2787267787852863e-04 0.0000000000000000e+00  -6.0048995993594709e-04 -4.3148197351153153e-04 0.0000000000000000e+00  -6.0315603986845574e-04 -4.3436684222565943e-04 0.0000000000000000e+00  -5.9488271122602808e-04 -4.3385572296681513e-04 0.0000000000000000e+00  -5.7627240270249880e-04 -4.2814071163637963e-04 0.0000000000000000e+00  -5.4837269223365548e-04 -4.1643551217425461e-04 0.0000000000000000e+00  -5.1209961345772604e-04 -3.9849278281439221e-04 0.0000000000000000e+00  -4.6813714544348379e-04 -3.7414311580906683e-04 0.0000000000000000e+00  -4.1681646940932925e-04 -3.4317424945034245e-04 0.0000000000000000e+00  -3.5810297479524112e-04 -3.0505589315036827e-04 0.0000000000000000e+00  -2.9151495489901358e-04 -2.5869085993955826e-04 0.0000000000000000e+00  -2.1587046100133935e-04 -2.0166792674045458e-04 0.0000000000000000e+00  -1.2637854270385415e-04 -1.2822830656023377e-04 0.0000000000000000e+00  -5.6830286503957146e-04 -4.4452707105858112e-04 0.0000000000000000e+00  -5.6034031705716101e-04 -4.6895423512537007e-04 0.0000000000000000e+00  -5.4890736139691820e-04 -5.0982498185642448e-04 0.0000000000000000e+00  -5.3847192066170540e-04 -5.7287020332786090e-04 0.0000000000000000e+00  -5.3139507266256351e-04 -6.6080028171333302e-04 0.0000000000000000e+00  -5.3058364365377736e-04 -7.7555680252719980e-04 0.0000000000000000e+00  -5.3819570085407084e-04 -9.1817250234100417e-04 0.0000000000000000e+00  -5.5553305165830305e-04 -1.0898490595661610e-03 0.0000000000000000e+00  -5.8383161450895104e-04 -1.2920233440105854e-03 0.0000000000000000e+00  -6.2321780308169676e-04 -1.5269960029984082e-03 0.0000000000000000e+00  -6.7340033908369027e-04 -1.7981621512296760e-03 0.0000000000000000e+00  -7.3339128746251084e-04 -2.1093158674228385e-03 0.0000000000000000e+00  -8.0195766486521709e-04 -2.4645946711217624e-03 0.0000000000000000e+00  -8.7806978999661954e-04 -2.8639793134616113e-03 0.0000000000000000e+00  -9.5982936262800221e-04 -3.2985652425751035e-03 0.0000000000000000e+00  -1.1173835555748433e-03 -4.2030232647421754e-03 0.0000000000000000e+00  -1.1775423940081637e-03 -4.6258189693687201e-03 0.0000000000000000e+00  -1.2199982101067221e-03 -5.0106018350196098e-03 0.0000000000000000e+00  -1.2482096538032870e-03 -5.3534343182420558e-03 0.0000000000000000e+00  -1.2712417589433838e-03 -5.6558785764803093e-03 0.0000000000000000e+00  -1.2979953794929606e-03 -5.9190454271222546e-03 0.0000000000000000e+00  -1.3341019229321037e-03 -6.1413860145056688e-03 0.0000000000000000e+00  -1.3796122992633737e-03 -6.3198360156788910e-03 0.0000000000000000e+00  -1.4306213768206291e-03 -6.4522137887205655e-03 0.0000000000000000e+00  -1.4796732915954528e-03 -6.5397414143095970e-03 0.0000000000000000e+00  -1.5194736185546174e-03 -6.5889732082892311e-03 0.0000000000000000e+00  -1.5458074417944718e-03 -6.6113607723143090e-03 0.0000000000000000e+00  -1.5596961066429724e-03 -6.6196088287980145e-03 0.0000000000000000e+00  -1.5651102973372247e-03 -6.6240661881905860e-03 0.0000000000000000e+00  -1.5666335152663047e-03 -6.6289034683696211e-03 0.0000000000000000e+00  -1.5812554211784332e-03 -6.6345320041513159e-03 0.0000000000000000e+00  -1.5763377110645481e-03 -6.6345786643921189e-03 0.0000000000000000e+00  -1.5715206554472094e-03 -6.6346247094130036e-03 0.0000000000000000e+00  -1.5867079774236838e-03 -6.6278513619825261e-03 0.0000000000000000e+00  -1.5870113201885169e-03 -6.6204049402821957e-03 0.0000000000000000e+00  -1.5845933271857557e-03 -6.6127352970627379e-03 0.0000000000000000e+00  -1.5750151927403421e-03 -6.6094655712467254e-03 0.0000000000000000e+00  -1.5536891286045372e-03 -6.6203948302848798e-03 0.0000000000000000e+00  -1.5206122408390674e-03 -6.6592371850809949e-03 0.0000000000000000e+00  -1.4789239593492793e-03 -6.7366837709634019e-03 0.0000000000000000e+00  -1.4364581849427968e-03 -6.8599854421973966e-03 0.0000000000000000e+00  -1.4003322058412130e-03 -7.0301726342270705e-03 0.0000000000000000e+00  -1.3749143361030931e-03 -7.2449253763032665e-03 0.0000000000000000e+00  -1.3598410420891972e-03 -7.5010686317936717e-03 0.0000000000000000e+00  -1.3489745446528649e-03 -7.7960340995169037e-03 0.0000000000000000e+00  -1.3327914156252075e-03 -8.1310654746069473e-03 0.0000000000000000e+00  -1.3003322969196681e-03 -8.5055568940701227e-03 0.0000000000000000e+00  -1.2451182639390259e-03 -8.9165979400475832e-03 0.0000000000000000e+00  -1.0700118125522484e-03 -9.7850962666916255e-03 0.0000000000000000e+00  -9.6277101136420728e-04 -1.0197547020423935e-02 0.0000000000000000e+00  -8.5265090361145307e-04 -1.0572616088862620e-02 0.0000000000000000e+00  -7.4806116851640228e-04 -1.0902137497126596e-02 0.0000000000000000e+00  -6.5750366171780190e-04 -1.1185801172838940e-02 0.0000000000000000e+00  -5.8816573773926701e-04 -1.1422423228448832e-02 0.0000000000000000e+00  -5.4300266467235763e-04 -1.1609306253320576e-02 0.0000000000000000e+00  -5.1951427627888822e-04 -1.1743193962037535e-02 0.0000000000000000e+00  -5.1181147570024356e-04 -1.1822188881309518e-02 0.0000000000000000e+00  -5.1086360540088065e-04 -1.1848199975755739e-02 0.0000000000000000e+00  -5.0839786637844843e-04 -1.1828912637887773e-02 0.0000000000000000e+00  -4.9976113408781945e-04 -1.1777153090794173e-02 0.0000000000000000e+00  -4.8599237405944236e-04 -1.1707054073001296e-02 0.0000000000000000e+00  -4.7128090387313500e-04 -1.1630344812074835e-02 0.0000000000000000e+00  -4.6055976868443493e-04 -1.1552306573003341e-02 0.0000000000000000e+00  -2.7409981384199757e-04 -1.1474295537087844e-02 0.0000000000000000e+00  -3.3483846255232311e-04 -1.1474336781665496e-02 0.0000000000000000e+00  -3.9566730575818130e-04 -1.1474377306130242e-02 0.0000000000000000e+00  -2.0980944029940103e-04 -1.1551272668406599e-02 0.0000000000000000e+00  -1.9777850800632710e-04 -1.1626650048924457e-02 0.0000000000000000e+00  -1.7478247074889414e-04 -1.1700307757821009e-02 0.0000000000000000e+00  -1.3650424222326545e-04 -1.1776414278137391e-02 0.0000000000000000e+00  -7.8706563078739426e-05 -1.1864440082795996e-02 0.0000000000000000e+00  -2.1153146796784987e-06 -1.1977623704332106e-02 0.0000000000000000e+00  8.9331347847128586e-05 -1.2125769900352230e-02 0.0000000000000000e+00  1.8720720016494413e-04 -1.2314954678938311e-02 0.0000000000000000e+00  2.8431388598904999e-04 -1.2545103905745080e-02 0.0000000000000000e+00  3.7661124553517851e-04 -1.2813234734539575e-02 0.0000000000000000e+00  4.6493923531361851e-04 -1.3116082322618723e-02 0.0000000000000000e+00  5.5552989310013109e-04 -1.3451763512451590e-02 0.0000000000000000e+00  6.5738114705075879e-04 -1.3822314739063698e-02 0.0000000000000000e+00  7.7949225821090200e-04 -1.4228212703451468e-02 0.0000000000000000e+00  9.2546491381608734e-04 -1.4667498985918671e-02 0.0000000000000000e+00  1.2670578138594482e-03 -1.5585206873201213e-02 0.0000000000000000e+00  1.4420368203663571e-03 -1.6016608904088517e-02 0.0000000000000000e+00  1.6082557060872972e-03 -1.6406755359313654e-02 0.0000000000000000e+00  1.7588536330168617e-03 -1.6746917194033685e-02 0.0000000000000000e+00  1.8863533118507845e-03 -1.7035501544937329e-02 0.0000000000000000e+00  1.9855303349406626e-03 -1.7272522237396514e-02 0.0000000000000000e+00  2.0548873591005319e-03 -1.7454808134080096e-02 0.0000000000000000e+00  2.0979671571941601e-03 -1.7579159241788919e-02 0.0000000000000000e+00  2.1224314088772287e-03 -1.7643967715172650e-02 0.0000000000000000e+00  2.1377337848579366e-03 -1.7651837690337967e-02 0.0000000000000000e+00  2.1524638951105029e-03 -1.7611033316709927e-02 0.0000000000000000e+00  2.1718422761171493e-03 -1.7535727800733474e-02 0.0000000000000000e+00  2.1942308225687346e-03 -1.7440616831285477e-02 0.0000000000000000e+00  2.2153308709363874e-03 -1.7337887633261734e-02 0.0000000000000000e+00  2.2299786456313917e-03 -1.7233402019704618e-02 0.0000000000000000e+00  2.4805565076910976e-03 -1.7128754534582340e-02 0.0000000000000000e+00  2.3988921183280497e-03 -1.7128782565799278e-02 0.0000000000000000e+00  2.3171337016804697e-03 -1.7128809354370420e-02 0.0000000000000000e+00  2.5670576925936025e-03 -1.7232400349756191e-02 0.0000000000000000e+00  2.5830056288499658e-03 -1.7334157063226534e-02 0.0000000000000000e+00  2.6125655206636080e-03 -1.7433666849632094e-02 0.0000000000000000e+00  2.6601284117823325e-03 -1.7534973958483888e-02 0.0000000000000000e+00  2.7300008257520780e-03 -1.7647480013461003e-02 0.0000000000000000e+00  2.8214606927220438e-03 -1.7784479359659180e-02 0.0000000000000000e+00  2.9303152034406070e-03 -1.7955732643076178e-02 0.0000000000000000e+00  3.0481689506778428e-03 -1.8166697289815601e-02 0.0000000000000000e+00  3.1685430700681035e-03 -1.8416747764657099e-02 0.0000000000000000e+00  3.2882881067358674e-03 -1.8702710468424567e-02 0.0000000000000000e+00  3.4099486579252285e-03 -1.9020820387294857e-02 0.0000000000000000e+00  3.5416869638334441e-03 -1.9369815110454523e-02 0.0000000000000000e+00  3.6953787076079371e-03 -1.9750884926768360e-02 0.0000000000000000e+00  3.8822363082497680e-03 -2.0165493161330237e-02 0.0000000000000000e+00  4.1075692874898793e-03 -2.0611682472111589e-02 0.0000000000000000e+00  4.6442346430948939e-03 -2.1538772349694833e-02 0.0000000000000000e+00  4.9242551389131082e-03 -2.1970593150452807e-02 0.0000000000000000e+00  5.1930438052901120e-03 -2.2356031778542226e-02 0.0000000000000000e+00  5.4399818096585208e-03 -2.2684576333222337e-02 0.0000000000000000e+00  5.6554423929644137e-03 -2.2953242200617462e-02 0.0000000000000000e+00  5.8335013464586851e-03 -2.3161021069436741e-02 0.0000000000000000e+00  5.9729625325911449e-03 -2.3303766772449209e-02 0.0000000000000000e+00  6.0783547453359737e-03 -2.3378049007709251e-02 0.0000000000000000e+00  6.1584173331566900e-03 -2.3382811133227915e-02 0.0000000000000000e+00  6.2232672432702635e-03 -2.3321997923550469e-02 0.0000000000000000e+00  6.2815483671524452e-03 -2.3205677790138893e-02 0.0000000000000000e+00  6.3379595595420245e-03 -2.3049885917118467e-02 0.0000000000000000e+00  6.3900496987012462e-03 -2.2870807672597315e-02 0.0000000000000000e+00  6.4328104553276217e-03 -2.2681727927546243e-02 0.0000000000000000e+00  6.4606237578081153e-03 -2.2489318109665538e-02 0.0000000000000000e+00  6.9245877123728598e-03 -2.2296194673506502e-02 0.0000000000000000e+00  6.7733005474348599e-03 -2.2296131072020029e-02 0.0000000000000000e+00  6.6219003529700490e-03 -2.2296066121262247e-02 0.0000000000000000e+00  7.0849505786925900e-03 -2.2488634862729472e-02 0.0000000000000000e+00  7.1138040949446316e-03 -2.2678214845755603e-02 0.0000000000000000e+00  7.1648640850293255e-03 -2.2863726532692245e-02 0.0000000000000000e+00  7.2425126739559323e-03 -2.3048340244422018e-02 0.0000000000000000e+00  7.3510958208862298e-03 -2.3240742296104049e-02 0.0000000000000000e+00  7.4899989307621959e-03 -2.3453629056995762e-02 0.0000000000000000e+00  7.6552550502397461e-03 -2.3696131236609380e-02 0.0000000000000000e+00  7.8391176723786402e-03 -2.3973054102707097e-02 0.0000000000000000e+00  8.0364073690353949e-03 -2.4283292401738522e-02 0.0000000000000000e+00  8.2460077147670924e-03 -2.4623748837875308e-02 0.0000000000000000e+00  8.4729171314964855e-03 -2.4991768339263074e-02 0.0000000000000000e+00  8.7275184155556230e-03 -2.5388272123045955e-02 0.0000000000000000e+00  9.0220716591519774e-03 -2.5818431612170099e-02 0.0000000000000000e+00  9.3637200541596896e-03 -2.6289586053006096e-02 0.0000000000000000e+00  9.7467424874944225e-03 -2.6805887243101522e-02 0.0000000000000000e+00  1.0522989058536658e-02 -2.7929615305746083e-02 0.0000000000000000e+00  1.0847792460258149e-02 -2.8483515382496421e-02 0.0000000000000000e+00  1.1108359023591696e-02 -2.8999668769571815e-02 0.0000000000000000e+00  1.1309134853130965e-02 -2.9462048366318577e-02 0.0000000000000000e+00  1.1462567669018400e-02 -2.9869242432694981e-02 0.0000000000000000e+00  1.1580126692206415e-02 -3.0227985921612455e-02 0.0000000000000000e+00  1.1670059107617755e-02 -3.0545975764485488e-02 0.0000000000000000e+00  1.1737486756465340e-02 -3.0830978040447127e-02 0.0000000000000000e+00  1.1785171673892647e-02 -3.1088946911398761e-02 0.0000000000000000e+00  1.1815176499280487e-02 -3.1323429896379408e-02 0.0000000000000000e+00  1.1828914940203286e-02 -3.1536129556427560e-02 0.0000000000000000e+00  1.1828189197104958e-02 -3.1726339216921966e-02 0.0000000000000000e+00  1.1816369016566656e-02 -3.1892414696979572e-02 0.0000000000000000e+00  1.1797452223555247e-02 -3.2032365755832230e-02 0.0000000000000000e+00  1.1780104981258130e-02 -3.2146934728160000e-02 0.0000000000000000e+00  1.0992241125554287e-02 -3.2982861401392866e-02 0.0000000000000000e+00  1.1080860351639818e-02 -3.2875673592521915e-02 0.0000000000000000e+00  1.1159395475438962e-02 -3.2768951126729222e-02 0.0000000000000000e+00  1.1226434758939009e-02 -3.2666107045015547e-02 0.0000000000000000e+00  1.1282542159326900e-02 -3.2570307106159484e-02 0.0000000000000000e+00  1.1329521239858449e-02 -3.2484004545395927e-02 0.0000000000000000e+00  1.1369963742348598e-02 -3.2409183528823306e-02 0.0000000000000000e+00  1.1407039469823731e-02 -3.2347411850249391e-02 0.0000000000000000e+00  1.1444420017046510e-02 -3.2299823401575729e-02 0.0000000000000000e+00  1.1486172823697084e-02 -3.2266943104482720e-02 0.0000000000000000e+00  1.1536880393292315e-02 -3.2248564379103693e-02 0.0000000000000000e+00  1.1601020898512797e-02 -3.2242417732391553e-02 0.0000000000000000e+00  1.1681310597637086e-02 -3.2244196076399750e-02 0.0000000000000000e+00  2.4221419682735796e-02 -6.7512412402524188e-02 0.0000000000000000e+00  2.4173603354420450e-02 -6.6706199417842366e-02 0.0000000000000000e+00  2.4122532431271375e-02 -6.5890641757144139e-02 0.0000000000000000e+00  2.4065961943100268e-02 -6.5061631604703740e-02 0.0000000000000000e+00  2.4001037611941251e-02 -6.4217675712285552e-02 0.0000000000000000e+00  2.3925887807984943e-02 -6.3359235277747492e-02 0.0000000000000000e+00  2.3839467185138886e-02 -6.2487794792770890e-02 0.0000000000000000e+00  2.3741303747277558e-02 -6.1605576500041531e-02 0.0000000000000000e+00  2.3631833345513560e-02 -6.0715120651229297e-02 0.0000000000000000e+00  2.3511920195382043e-02 -5.9818996557300552e-02 0.0000000000000000e+00  2.3382808936216016e-02 -5.8919619811468628e-02 0.0000000000000000e+00  2.3245869241481608e-02 -5.8019261113483413e-02 0.0000000000000000e+00  2.3102501628772754e-02 -5.7119983454669107e-02 0.0000000000000000e+00  2.2953925361031080e-02 -5.6223670116087296e-02 0.0000000000000000e+00  2.2801056462081325e-02 -5.5332141659060807e-02 0.0000000000000000e+00  2.2644398098170239e-02 -5.4447320722111961e-02 0.0000000000000000e+00  2.2484166844208738e-02 -5.3571295538851732e-02 0.0000000000000000e+00  2.2319971329889370e-02 -5.2706739358134511e-02 0.0000000000000000e+00  2.2151205740907169e-02 -5.1856817304183969e-02 0.0000000000000000e+00  2.1976912154435171e-02 -5.1025640148838827e-02 0.0000000000000000e+00  2.1795941663436545e-02 -5.0218635227010422e-02 0.0000000000000000e+00  2.1607032462446458e-02 -4.9443387609730063e-02 0.0000000000000000e+00  2.1408936162978596e-02 -4.8712836245965084e-02 0.0000000000000000e+00  2.1206270225602390e-02 -4.8052281510965238e-02 0.0000000000000000e+00  2.1007191537970416e-02 -4.7446846196540167e-02 0.0000000000000000e+00  2.0811642635923250e-02 -4.6880037465485962e-02 0.0000000000000000e+00  2.0618838471093481e-02 -4.6345323601802033e-02 0.0000000000000000e+00  2.0428542803827922e-02 -4.5838255895867416e-02 0.0000000000000000e+00  2.0240644705536794e-02 -4.5355618944978152e-02 0.0000000000000000e+00  2.0055391401494097e-02 -4.4894869212367149e-02 0.0000000000000000e+00  1.9873201590898480e-02 -4.4453780617192518e-02 0.0000000000000000e+00  1.9694710805666017e-02 -4.4030293283575675e-02 0.0000000000000000e+00  1.9520695893088951e-02 -4.3622383641445869e-02 0.0000000000000000e+00  1.9351934593181207e-02 -4.3228063879461889e-02 0.0000000000000000e+00  1.9189282803879347e-02 -4.2845237877269390e-02 0.0000000000000000e+00  1.9033458255856922e-02 -4.2471807917905842e-02 0.0000000000000000e+00  1.8885055557978123e-02 -4.2105703238743117e-02 0.00000000000