<?xml version="1.0"?>
<VTKFile type="UnstructuredGrid"  version="0.1"  >
<UnstructuredGrid>
<Piece  NumberOfPoints="12853" NumberOfCells="23493">
<Points>
<DataArray  type="Float64"  NumberOfComponents="3"  format="ascii">-3.187178156719634e-14 1.7 0  0 0 0  1.3 3 0  -3.185690647650846e-14 4.300000000000001 0  -3.187178156719634e-14 4.699999999999999 0  1.3 6 0  -3.185690647650846e-14 7.300000000000001 0  -3.187178156719634e-14 7.699999999999999 0  1.3 9 0  -3.185690647650846e-14 10.3 0  -3.187178156719634e-14 10.7 0  1.3 12 0  -3.185690647650846e-14 13.3 0  -3.187178156719634e-14 13.7 0  1.3 15 0  -3.185690647650846e-14 16.3 0  0 18 0  18 18 0  17.99999999999997 16.3 0  17.99999999999997 13.7 0  17.99999999999997 13.3 0  17.99999999999997 10.7 0  17.99999999999997 10.3 0  17.99999999999997 7.7 0  17.99999999999997 7.3 0  17.99999999999997 4.7 0  17.99999999999997 4.3 0  17.99999999999997 1.7 0  18 0 0  4.3 3 0  7.3 3 0  10.3 3 0  4.3 6 0  7.3 6 0  10.3 6 0  13.3 3 0  16.3 3 0  13.3 6 0  16.3 6 0  4.3 9 0  4.3 12 0  7.3 9 0  10.3 9 0  7.3 12 0  10.3 12 0  4.3 15 0  7.3 15 0  10.3 15 0  13.3 9 0  13.3 12 0  16.3 9 0  16.3 12 0  13.3 15 0  16.3 15 0  0 1.578571428571429 0  0 1.457142857142856 0  0 1.335714285714285 0  0 1.214285714285712 0  0 1.092857142857142 0  0 0.9714285714285715 0  0 0.8499999999999979 0  0 0.7285714285714278 0  0 0.6071428571428577 0  0 0.485714285714284 0  0 0.3642857142857139 0  0 0.2428571428571438 0  0 0.1214285714285701 0  0.1274222824284281 1.706259855326144 0  0.2536174186209668 1.7249791354758 0  0.3773700804308007 1.755977563548128 0  0.497488462074617 1.798956607735327 0  0.6128157578737968 1.853502356347138 0  0.7222413029254824 1.919089504006691 0  0.8247112694127393 1.995086410628442 0  0.9192388155425116 2.080761184457488 0  1.004913589371558 2.17528873058726 0  1.080910495993309 2.277758697074517 0  1.146497643652861 2.387184242126203 0  1.201043392264673 2.502511537925383 0  1.244022436451871 2.622629919569199 0  1.275020864524199 2.746382581379033 0  1.293740144673856 2.872577717571571 0  1.293740144673856 3.127422282428428 0  1.2750208645242 3.253617418620966 0  1.244022436451872 3.3773700804308 0  1.201043392264673 3.497488462074616 0  1.146497643652862 3.612815757873796 0  1.08091049599331 3.722241302925481 0  1.00491358937156 3.824711269412738 0  0.9192388155425134 3.91923881554251 0  0.8247112694127412 4.004913589371556 0  0.7222413029254846 4.080910495993308 0  0.6128157578737984 4.146497643652861 0  0.4974884620746181 4.201043392264673 0  0.3773700804308024 4.244022436451871 0  0.2536174186209674 4.275020864524199 0  0.127422282428429 4.293740144673856 0  0 4.6 0  0 4.5 0  0 4.4 0  0.1274222824284281 4.706259855326143 0  0.2536174186209668 4.724979135475801 0  0.3773700804308007 4.755977563548129 0  0.497488462074617 4.798956607735327 0  0.6128157578737968 4.853502356347138 0  0.7222413029254824 4.919089504006691 0  0.8247112694127393 4.995086410628442 0  0.9192388155425116 5.080761184457488 0  1.004913589371558 5.17528873058726 0  1.080910495993309 5.277758697074518 0  1.146497643652861 5.387184242126203 0  1.201043392264673 5.502511537925383 0  1.244022436451871 5.622629919569198 0  1.275020864524199 5.746382581379033 0  1.293740144673856 5.872577717571572 0  1.293740144673856 6.127422282428428 0  1.2750208645242 6.253617418620967 0  1.244022436451872 6.377370080430801 0  1.201043392264673 6.497488462074616 0  1.146497643652862 6.612815757873795 0  1.08091049599331 6.722241302925481 0  1.00491358937156 6.824711269412737 0  0.9192388155425134 6.91923881554251 0  0.8247112694127412 7.004913589371556 0  0.7222413029254846 7.080910495993308 0  0.6128157578737984 7.146497643652861 0  0.4974884620746181 7.201043392264673 0  0.3773700804308024 7.244022436451871 0  0.2536174186209674 7.275020864524199 0  0.127422282428429 7.293740144673856 0  0 7.6 0  0 7.5 0  0 7.4 0  0.1274222824284281 7.706259855326143 0  0.2536174186209668 7.724979135475801 0  0.3773700804308007 7.755977563548129 0  0.497488462074617 7.798956607735327 0  0.6128157578737968 7.853502356347138 0  0.7222413029254824 7.919089504006691 0  0.8247112694127393 7.995086410628442 0  0.9192388155425116 8.080761184457488 0  1.004913589371558 8.17528873058726 0  1.080910495993309 8.277758697074518 0  1.146497643652861 8.387184242126203 0  1.201043392264673 8.502511537925383 0  1.244022436451871 8.622629919569199 0  1.275020864524199 8.746382581379033 0  1.293740144673856 8.872577717571572 0  1.293740144673856 9.127422282428428 0  1.2750208645242 9.253617418620966 0  1.244022436451872 9.377370080430801 0  1.201043392264673 9.497488462074616 0  1.146497643652862 9.612815757873795 0  1.08091049599331 9.722241302925481 0  1.00491358937156 9.824711269412738 0  0.9192388155425134 9.91923881554251 0  0.8247112694127412 10.00491358937156 0  0.7222413029254846 10.08091049599331 0  0.6128157578737984 10.14649764365286 0  0.4974884620746181 10.20104339226467 0  0.3773700804308024 10.24402243645187 0  0.2536174186209674 10.2750208645242 0  0.127422282428429 10.29374014467386 0  0 10.6 0  0 10.5 0  0 10.4 0  0.1274222824284281 10.70625985532614 0  0.2536174186209668 10.7249791354758 0  0.3773700804308007 10.75597756354813 0  0.497488462074617 10.79895660773533 0  0.6128157578737968 10.85350235634714 0  0.7222413029254824 10.91908950400669 0  0.8247112694127393 10.99508641062844 0  0.9192388155425116 11.08076118445749 0  1.004913589371558 11.17528873058726 0  1.080910495993309 11.27775869707452 0  1.146497643652861 11.3871842421262 0  1.201043392264673 11.50251153792538 0  1.244022436451871 11.6226299195692 0  1.275020864524199 11.74638258137903 0  1.293740144673856 11.87257771757157 0  1.293740144673856 12.12742228242843 0  1.2750208645242 12.25361741862097 0  1.244022436451872 12.3773700804308 0  1.201043392264673 12.49748846207462 0  1.146497643652862 12.6128157578738 0  1.08091049599331 12.72224130292548 0  1.00491358937156 12.82471126941274 0  0.9192388155425134 12.91923881554251 0  0.8247112694127412 13.00491358937156 0  0.7222413029254846 13.08091049599331 0  0.6128157578737984 13.14649764365286 0  0.4974884620746181 13.20104339226467 0  0.3773700804308024 13.24402243645187 0  0.2536174186209674 13.2750208645242 0  0.127422282428429 13.29374014467386 0  0 13.6 0  0 13.5 0  0 13.4 0  0.1274222824284281 13.70625985532614 0  0.2536174186209668 13.7249791354758 0  0.3773700804308007 13.75597756354813 0  0.497488462074617 13.79895660773533 0  0.6128157578737968 13.85350235634714 0  0.7222413029254824 13.91908950400669 0  0.8247112694127393 13.99508641062844 0  0.9192388155425116 14.08076118445749 0  1.004913589371558 14.17528873058726 0  1.080910495993309 14.27775869707452 0  1.146497643652861 14.3871842421262 0  1.201043392264673 14.50251153792538 0  1.244022436451871 14.6226299195692 0  1.275020864524199 14.74638258137903 0  1.293740144673856 14.87257771757157 0  1.293740144673856 15.12742228242843 0  1.2750208645242 15.25361741862097 0  1.244022436451872 15.3773700804308 0  1.201043392264673 15.49748846207462 0  1.146497643652862 15.6128157578738 0  1.08091049599331 15.72224130292548 0  1.00491358937156 15.82471126941274 0  0.9192388155425134 15.91923881554251 0  0.8247112694127412 16.00491358937156 0  0.7222413029254846 16.08091049599331 0  0.6128157578737984 16.14649764365286 0  0.4974884620746181 16.20104339226467 0  0.3773700804308024 16.24402243645187 0  0.2536174186209674 16.2750208645242 0  0.127422282428429 16.29374014467385 0  0 17.87857142857143 0  0 17.75714285714286 0  0 17.63571428571429 0  0 17.51428571428571 0  0 17.39285714285714 0  0 17.27142857142857 0  0 17.15 0  0 17.02857142857143 0  0 16.90714285714286 0  0 16.78571428571428 0  0 16.66428571428571 0  0 16.54285714285714 0  0 16.42142857142857 0  17.8705035971223 18 0  17.7410071942446 18 0  17.61151079136691 18 0  17.48201438848921 18 0  17.35251798561151 18 0  17.22302158273381 18 0  17.09352517985612 18 0  16.96402877697842 18 0  16.83453237410072 18 0  16.70503597122302 18 0  16.57553956834532 18 0  16.44604316546762 18 0  16.31654676258993 18 0  16.18705035971223 18 0  16.05755395683453 18 0  15.92805755395683 18 0  15.79856115107913 18 0  15.66906474820144 18 0  15.53956834532374 18 0  15.41007194244604 18 0  15.28057553956834 18 0  15.15107913669064 18 0  15.02158273381295 18 0  14.89208633093525 18 0  14.76258992805755 18 0  14.63309352517985 18 0  14.50359712230215 18 0  14.37410071942446 18 0  14.24460431654676 18 0  14.11510791366906 18 0  13.98561151079136 18 0  13.85611510791366 18 0  13.72661870503597 18 0  13.59712230215827 18 0  13.46762589928057 18 0  13.33812949640287 18 0  13.20863309352517 18 0  13.07913669064748 18 0  12.94964028776977 18 0  12.82014388489208 18 0  12.69064748201438 18 0  12.56115107913668 18 0  12.43165467625898 18 0  12.30215827338128 18 0  12.17266187050359 18 0  12.04316546762589 18 0  11.91366906474819 18 0  11.78417266187049 18 0  11.65467625899279 18 0  11.52517985611509 18 0  11.3956834532374 18 0  11.2661870503597 18 0  11.136690647482 18 0  11.0071942446043 18 0  10.8776978417266 18 0  10.7482014388489 18 0  10.6187050359712 18 0  10.48920863309351 18 0  10.35971223021581 18 0  10.23021582733811 18 0  10.10071942446041 18 0  9.971223021582714 18 0  9.841726618705016 18 0  9.712230215827317 18 0  9.582733812949618 18 0  9.453237410071921 18 0  9.323741007194224 18 0  9.194244604316525 18 0  9.064748201438828 18 0  8.935251798561131 18 0  8.805755395683434 18 0  8.676258992805735 18 0  8.546762589928038 18 0  8.417266187050341 18 0  8.287769784172642 18 0  8.158273381294947 18 0  8.028776978417248 18 0  7.899280575539549 18 0  7.769784172661854 18 0  7.640287769784155 18 0  7.510791366906458 18 0  7.381294964028761 18 0  7.251798561151062 18 0  7.122302158273365 18 0  6.992805755395668 18 0  6.86330935251797 18 0  6.733812949640273 18 0  6.604316546762576 18 0  6.474820143884878 18 0  6.34532374100718 18 0  6.215827338129483 18 0  6.086330935251786 18 0  5.956834532374087 18 0  5.827338129496392 18 0  5.697
[...]
<PointData  Vectors="f_21"> 
<DataArray  type="Float64"  Name="f_21"  NumberOfComponents="3" format="ascii">-7.5887009373063190e-04 -5.6779248885757325e-04 0.0000000000000000e+00  0.0000000000000000e+00 0.0000000000000000e+00 0.0000000000000000e+00  -1.3836880487959253e-03 -4.9927644054641373e-03 0.0000000000000000e+00  -2.0730840614588885e-03 -8.8168038448783650e-03 0.0000000000000000e+00  -2.0966025630985664e-03 -8.8167061799963083e-03 0.0000000000000000e+00  -1.5248000411247394e-03 -1.2434452089375346e-02 0.0000000000000000e+00  -5.5354951611617104e-04 -1.5237629323137599e-02 0.0000000000000000e+00  -2.2281312545256076e-04 -1.5237629437644515e-02 0.0000000000000000e+00  1.5438172157235346e-03 -2.0119707722760755e-02 0.0000000000000000e+00  3.0950111251689272e-03 -2.2766212232386260e-02 0.0000000000000000e+00  3.5365651760007402e-03 -2.2766315461254270e-02 0.0000000000000000e+00  5.9698063622733062e-03 -2.8039136562823391e-02 0.0000000000000000e+00  8.8203936049437333e-03 -2.9623548395818187e-02 0.0000000000000000e+00  9.6394609529690742e-03 -2.9624281151684358e-02 0.0000000000000000e+00  1.3781311627012153e-02 -3.6409397317728055e-02 0.0000000000000000e+00  1.5973238018896972e-02 -4.2924073912701796e-02 0.0000000000000000e+00  1.4814547560467326e-02 -4.4047120068399358e-02 0.0000000000000000e+00  3.2667428138001213e-02 -9.1256215268360030e-02 0.0000000000000000e+00  1.7576321643649646e-02 -9.0049518227254086e-02 0.0000000000000000e+00  1.4354600818569086e-02 -6.0163726641940841e-02 0.0000000000000000e+00  1.4152048539140314e-02 -6.0163772928376248e-02 0.0000000000000000e+00  1.1539800999288188e-02 -4.8067586827698024e-02 0.0000000000000000e+00  1.0585448813906721e-02 -4.8066745878436165e-02 0.0000000000000000e+00  7.6542227421268613e-03 -3.1582735489880907e-02 0.0000000000000000e+00  7.2439946657374748e-03 -3.1582782674428614e-02 0.0000000000000000e+00  5.0134490415571836e-03 -1.7789794255261889e-02 0.0000000000000000e+00  4.5095596697173369e-03 -1.7789701054069285e-02 0.0000000000000000e+00  1.2564837956595305e-03 -9.8391997040740567e-04 0.0000000000000000e+00  0.0000000000000000e+00 0.0000000000000000e+00 0.0000000000000000e+00  -8.1254641396021662e-04 -5.0043854286718472e-03 0.0000000000000000e+00  -4.1551648236259789e-04 -5.0592289032966075e-03 0.0000000000000000e+00  -2.4942216802337441e-04 -5.6190180961525303e-03 0.0000000000000000e+00  -1.3834871810892229e-04 -1.2790467015808153e-02 0.0000000000000000e+00  6.5839361293464787e-04 -1.3168517793787970e-02 0.0000000000000000e+00  1.6320258047666614e-03 -1.4854885260939137e-02 0.0000000000000000e+00  1.7177666616174887e-04 -6.7571585417194142e-03 0.0000000000000000e+00  1.0103590367205016e-03 -8.5714657289305725e-03 0.0000000000000000e+00  2.4188862369021757e-03 -1.8225013282363922e-02 0.0000000000000000e+00  4.6002262569282805e-03 -2.2861270316292957e-02 0.0000000000000000e+00  2.5483385395034482e-03 -2.0727508542883813e-02 0.0000000000000000e+00  7.4838989583376246e-03 -2.8617568057764952e-02 0.0000000000000000e+00  3.7122241172043600e-03 -2.1251768245319925e-02 0.0000000000000000e+00  4.3393202918731175e-03 -2.4056168388175238e-02 0.0000000000000000e+00  7.9058681777091893e-03 -2.9138747387219933e-02 0.0000000000000000e+00  8.8771146825095820e-03 -3.3015010249749573e-02 0.0000000000000000e+00  1.4387607852957963e-02 -3.6460341361164092e-02 0.0000000000000000e+00  1.5123854630530641e-02 -3.6533353493191797e-02 0.0000000000000000e+00  1.4388447112760768e-02 -4.1482253591518421e-02 0.0000000000000000e+00  5.8840547762474861e-03 -2.9472049211078918e-02 0.0000000000000000e+00  8.6147543986497370e-03 -4.0643806905748217e-02 0.0000000000000000e+00  6.7579955320521265e-03 -3.7169080236599393e-02 0.0000000000000000e+00  1.2037275697296247e-02 -5.1877397492227556e-02 0.0000000000000000e+00  1.4909369526158019e-02 -5.0760534425875796e-02 0.0000000000000000e+00  1.0648395039426944e-02 -6.7646878756935730e-02 0.0000000000000000e+00  -7.8201764314802516e-04 -5.6910875434718002e-04 0.0000000000000000e+00  -7.9883134554493030e-04 -5.7391300626140319e-04 0.0000000000000000e+00  -8.0241174896020803e-04 -5.7775984089032640e-04 0.0000000000000000e+00  -7.9143660640802922e-04 -5.7709471498466696e-04 0.0000000000000000e+00  -7.6670457103434524e-04 -5.6951089275284383e-04 0.0000000000000000e+00  -7.2960772890694192e-04 -5.5396026168489905e-04 0.0000000000000000e+00  -6.8136398338888317e-04 -5.3011226932320275e-04 0.0000000000000000e+00  -6.2288306615637082e-04 -4.9773995336800658e-04 0.0000000000000000e+00  -5.5460565236915838e-04 -4.5655959274102016e-04 0.0000000000000000e+00  -4.7648603231057092e-04 -4.0586436473346720e-04 0.0000000000000000e+00  -3.8788395973861242e-04 -3.4419316037227738e-04 0.0000000000000000e+00  -2.8722804687557552e-04 -2.6833619852182971e-04 0.0000000000000000e+00  -1.6814497995311671e-04 -1.7062798053810402e-04 0.0000000000000000e+00  -7.5595155245439445e-04 -5.9129144007348197e-04 0.0000000000000000e+00  -7.4535170237352382e-04 -6.2380715288301233e-04 0.0000000000000000e+00  -7.3012395986214197e-04 -6.7819329173054077e-04 0.0000000000000000e+00  -7.1620946873615892e-04 -7.6207817793900209e-04 0.0000000000000000e+00  -7.0674692241293885e-04 -8.7907087803630786e-04 0.0000000000000000e+00  -7.0560089731614968e-04 -1.0317566073525686e-03 0.0000000000000000e+00  -7.1563965089185973e-04 -1.2215095456262488e-03 0.0000000000000000e+00  -7.3859068194999042e-04 -1.4499260459580547e-03 0.0000000000000000e+00  -7.7609367970438094e-04 -1.7189122930869388e-03 0.0000000000000000e+00  -8.2831020970596783e-04 -2.0315202411647602e-03 0.0000000000000000e+00  -8.9484399557167218e-04 -2.3922536125113945e-03 0.0000000000000000e+00  -9.7436961467866538e-04 -2.8061422125253391e-03 0.0000000000000000e+00  -1.0652343380829420e-03 -3.2786691403532348e-03 0.0000000000000000e+00  -1.1660577751103662e-03 -3.8097851355350779e-03 0.0000000000000000e+00  -1.2743039734796275e-03 -4.3876261046351499e-03 0.0000000000000000e+00  -1.4825515846046983e-03 -5.5900169459505416e-03 0.0000000000000000e+00  -1.5617570068666273e-03 -6.1520342814571369e-03 0.0000000000000000e+00  -1.6173602909613032e-03 -6.6635292439293694e-03 0.0000000000000000e+00  -1.6540235571504476e-03 -7.1192691644881160e-03 0.0000000000000000e+00  -1.6838585225023616e-03 -7.5213079048470103e-03 0.0000000000000000e+00  -1.7187330975114480e-03 -7.8710864142926031e-03 0.0000000000000000e+00  -1.7661418510395396e-03 -8.1665063941507611e-03 0.0000000000000000e+00  -1.8261399062872573e-03 -8.4034662738421504e-03 0.0000000000000000e+00  -1.8935190415003147e-03 -8.5790535052863489e-03 0.0000000000000000e+00  -1.9583491610918433e-03 -8.6949008682368108e-03 0.0000000000000000e+00  -2.0109236890159723e-03 -8.7597439966534043e-03 0.0000000000000000e+00  -2.0456393345111997e-03 -8.7888348139564792e-03 0.0000000000000000e+00  -2.0638615872043994e-03 -8.7990881338260059e-03 0.0000000000000000e+00  -2.0708794408279677e-03 -8.8042796239290681e-03 0.0000000000000000e+00  -2.0727939759036698e-03 -8.8099636241893743e-03 0.0000000000000000e+00  -2.0904239822935856e-03 -8.8166937107018954e-03 0.0000000000000000e+00  -2.0844765021260986e-03 -8.8167556236232233e-03 0.0000000000000000e+00  -2.0786631469085046e-03 -8.8168167191892514e-03 0.0000000000000000e+00  -2.0970459458407959e-03 -8.8085640524427616e-03 0.0000000000000000e+00  -2.0973386681819111e-03 -8.7994079083873293e-03 0.0000000000000000e+00  -2.0939382456420701e-03 -8.7899385968736466e-03 0.0000000000000000e+00  -2.0809395525907379e-03 -8.7862978847314116e-03 0.0000000000000000e+00  -2.0522387268851337e-03 -8.8015145234992421e-03 0.0000000000000000e+00  -2.0078309081053348e-03 -8.8538273313035661e-03 0.0000000000000000e+00  -1.9518919190776522e-03 -8.9574540023414917e-03 0.0000000000000000e+00  -1.8948409755324550e-03 -9.1220319981939451e-03 0.0000000000000000e+00  -1.8461392904174938e-03 -9.3489162850879659e-03 0.0000000000000000e+00  -1.8115826131298294e-03 -9.6349953413604576e-03 0.0000000000000000e+00  -1.7906570956760799e-03 -9.9760109915531282e-03 0.0000000000000000e+00  -1.7751414563071011e-03 -1.0368508361039688e-02 0.0000000000000000e+00  -1.7522797604759787e-03 -1.0814103781968981e-02 0.0000000000000000e+00  -1.7073791105075920e-03 -1.1311985718492462e-02 0.0000000000000000e+00  -1.6317288992825855e-03 -1.1858305670372967e-02 0.0000000000000000e+00  -1.3931189379065229e-03 -1.3012515638749089e-02 0.0000000000000000e+00  -1.2473768781175361e-03 -1.3560668254408296e-02 0.0000000000000000e+00  -1.0979217596196421e-03 -1.4059115435505984e-02 0.0000000000000000e+00  -9.5606600696084172e-04 -1.4496918663037463e-02 0.0000000000000000e+00  -8.3316516878335456e-04 -1.4873601371346501e-02 0.0000000000000000e+00  -7.3878257506640921e-04 -1.5187520652368950e-02 0.0000000000000000e+00  -6.7682006337115475e-04 -1.5435041509697073e-02 0.0000000000000000e+00  -6.4390937069465359e-04 -1.5611812149240140e-02 0.0000000000000000e+00  -6.3218471470407873e-04 -1.5715312281156361e-02 0.0000000000000000e+00  -6.2961009298484060e-04 -1.5748111807981455e-02 0.0000000000000000e+00  -6.2517754040402045e-04 -1.5720478526982166e-02 0.0000000000000000e+00  -6.1270908460122090e-04 -1.5649520089598405e-02 0.0000000000000000e+00  -5.9360583866217864e-04 -1.5554073828519258e-02 0.0000000000000000e+00  -5.7345917050387850e-04 -1.5449770348162514e-02 0.0000000000000000e+00  -5.5884283363498747e-04 -1.5343656334858940e-02 0.0000000000000000e+00  -3.0520027980055820e-04 -1.5237585237981929e-02 0.0000000000000000e+00  -3.8782340079866740e-04 -1.5237630362375540e-02 0.0000000000000000e+00  -4.7056681348650809e-04 -1.5237674501402674e-02 0.0000000000000000e+00  -2.1775062407106100e-04 -1.5342320105516840e-02 0.0000000000000000e+00  -2.0141672091281983e-04 -1.5444895460256429e-02 0.0000000000000000e+00  -1.7027056602846583e-04 -1.5545138749236985e-02 0.0000000000000000e+00  -1.1857204394030878e-04 -1.5648575158302931e-02 0.0000000000000000e+00  -4.0689733167952804e-05 -1.5767786600075866e-02 0.0000000000000000e+00  6.2402126676500049e-05 -1.5920368360906476e-02 0.0000000000000000e+00  1.8545619288985664e-04 -1.6119344570257287e-02 0.0000000000000000e+00  3.1726048170053030e-04 -1.6372771806884089e-02 0.0000000000000000e+00  4.4824949716352542e-04 -1.6680519164692532e-02 0.0000000000000000e+00  5.7307535588625063e-04 -1.7038583915762698e-02 0.0000000000000000e+00  6.9290124728708252e-04 -1.7442590753264847e-02 0.0000000000000000e+00  8.1608287090538696e-04 -1.7890014960390152e-02 0.0000000000000000e+00  9.5467300602384859e-04 -1.8383554531767723e-02 0.0000000000000000e+00  1.1207114167252044e-03 -1.8923888293146906e-02 0.0000000000000000e+00  1.3189825756466580e-03 -1.9508473849683423e-02 0.0000000000000000e+00  1.7822159500962883e-03 -2.0729666777257214e-02 0.0000000000000000e+00  2.0190732904756918e-03 -2.1303780548055474e-02 0.0000000000000000e+00  2.2437788460731196e-03 -2.1822978223090806e-02 0.0000000000000000e+00  2.4471671626335009e-03 -2.2275547689181101e-02 0.0000000000000000e+00  2.6193301959167923e-03 -2.2659295518461249e-02 0.0000000000000000e+00  2.7533938452753738e-03 -2.2974192742171159e-02 0.0000000000000000e+00  2.8474489811345640e-03 -2.3215977163846522e-02 0.0000000000000000e+00  2.9062873117232926e-03 -2.3380378541700983e-02 0.0000000000000000e+00  2.9401656562107995e-03 -2.3465271093688986e-02 0.0000000000000000e+00  2.9617005347973009e-03 -2.3474159090947154e-02 0.0000000000000000e+00  2.9823345524027881e-03 -2.3418092443681215e-02 0.0000000000000000e+00  3.0090065811497731e-03 -2.3315984917172159e-02 0.0000000000000000e+00  3.0395168814199821e-03 -2.3187432844478023e-02 0.0000000000000000e+00  3.0681258235745398e-03 -2.3048683314273514e-02 0.0000000000000000e+00  3.0879486676786681e-03 -2.2907557277445020e-02 0.0000000000000000e+00  3.4264822499236194e-03 -2.2766244655679977e-02 0.0000000000000000e+00  3.3161568137621920e-03 -2.2766265376213516e-02 0.0000000000000000e+00  3.2057059648644250e-03 -2.2766284405695669e-02 0.0000000000000000e+00  3.5433263907456531e-03 -2.2906291571768222e-02 0.0000000000000000e+00  3.5648378257072360e-03 -2.3043789220725815e-02 0.0000000000000000e+00  3.6046689115347107e-03 -2.3178258126628808e-02 0.0000000000000000e+00  3.6686609078278218e-03 -2.3315064211422723e-02 0.0000000000000000e+00  3.7625389858104634e-03 -2.3466706925301270e-02 0.0000000000000000e+00  3.8853311165797416e-03 -2.3650864512437527e-02 0.0000000000000000e+00  4.0314469745356641e-03 -2.3880504926013693e-02 0.0000000000000000e+00  4.1897132592980694e-03 -2.4162856957466457e-02 0.0000000000000000e+00  4.3515274523542417e-03 -2.4497045034022925e-02 0.0000000000000000e+00  4.5127432124514744e-03 -2.4878797384444866e-02 0.0000000000000000e+00  4.6768257558329985e-03 -2.5303057925581893e-02 0.0000000000000000e+00  4.8547556684731688e-03 -2.5768105303391995e-02 0.0000000000000000e+00  5.0625032242132715e-03 -2.6275500177421810e-02 0.0000000000000000e+00  5.3151712058382740e-03 -2.6827229366356415e-02 0.0000000000000000e+00  5.6199360234193314e-03 -2.7420752267565737e-02 0.0000000000000000e+00  6.3459183210306542e-03 -2.8653898522471584e-02 0.0000000000000000e+00  6.7246146204254535e-03 -2.9228292222029564e-02 0.0000000000000000e+00  7.0879636040489784e-03 -2.9740887779424199e-02 0.0000000000000000e+00  7.4216663633111853e-03 -3.0177542987400257e-02 0.0000000000000000e+00  7.7128745014916622e-03 -3.0534160553965135e-02 0.0000000000000000e+00  7.9537487660135495e-03 -3.0809316747564243e-02 0.0000000000000000e+00  8.1427748333443087e-03 -3.0997426304229508e-02 0.0000000000000000e+00  8.2860661270808492e-03 -3.1093908480924214e-02 0.0000000000000000e+00  8.3953249118899516e-03 -3.1097384791804406e-02 0.0000000000000000e+00  8.4840541154666532e-03 -3.1013173037747414e-02 0.0000000000000000e+00  8.5637614750906504e-03 -3.0854761633869205e-02 0.0000000000000000e+00  8.6406743459806687e-03 -3.0643579732553713e-02 0.0000000000000000e+00  8.7114898404633354e-03 -3.0401235813014099e-02 0.0000000000000000e+00  8.7695059292632535e-03 -3.0145460767689290e-02 0.0000000000000000e+00  8.8072221662102573e-03 -2.9885171459421534e-02 0.0000000000000000e+00  9.4350247305122308e-03 -2.9624058836619390e-02 0.0000000000000000e+00  9.2303337436320746e-03 -2.9623916741503841e-02 0.0000000000000000e+00  9.0254917626195700e-03 -2.9623772767844860e-02 0.0000000000000000e+00  9.6519306993314673e-03 -2.9884497250809241e-02 0.0000000000000000e+00  9.6908860052663491e-03 -3.0141036958404893e-02 0.0000000000000000e+00  9.7598107403775100e-03 -3.0392086418091387e-02 0.0000000000000000e+00  9.8645313683483459e-03 -3.0641829256932891e-02 0.0000000000000000e+00  1.0010820748675495e-02 -3.0901796756877587e-02 0.0000000000000000e+00  1.0197843662246598e-02 -3.1188856000427041e-02 0.0000000000000000e+00  1.0420305895599148e-02 -3.1515120060991414e-02 0.0000000000000000e+00  1.0667899959616726e-02 -3.1886932261847439e-02 0.0000000000000000e+00  1.0933766079891605e-02 -3.2302765720549763e-02 0.0000000000000000e+00  1.1216488387032611e-02 -3.2758450309280443e-02 0.0000000000000000e+00  1.1522826675843718e-02 -3.3250431985581683e-02 0.0000000000000000e+00  1.1866734193551325e-02 -3.3779949879189801e-02 0.0000000000000000e+00  1.2264657274728802e-02 -3.4353965650370084e-02 0.0000000000000000e+00  1.2726126715375265e-02 -3.4982433265261868e-02 0.0000000000000000e+00  1.3243316000576719e-02 -3.5671071980232290e-02 0.0000000000000000e+00  1.4290553626052289e-02 -3.7170580748896231e-02 0.0000000000000000e+00  1.4728116475988812e-02 -3.7909969721512955e-02 0.0000000000000000e+00  1.5078721239813598e-02 -3.8598997886236434e-02 0.0000000000000000e+00  1.5348556598211893e-02 -3.9216123336136680e-02 0.0000000000000000e+00  1.5554566446339469e-02 -3.9759420463942416e-02 0.0000000000000000e+00  1.5712310255896873e-02 -4.0237895710240515e-02 0.0000000000000000e+00  1.5832959022654160e-02 -4.0661847359933730e-02 0.0000000000000000e+00  1.5923442263313783e-02 -4.1041670010092519e-02 0.0000000000000000e+00  1.5987496467269286e-02 -4.1385335783434458e-02 0.0000000000000000e+00  1.6027901805288857e-02 -4.1697598894526754e-02 0.0000000000000000e+00  1.6046555146770922e-02 -4.1980748914547603e-02 0.0000000000000000e+00  1.6045865312664543e-02 -4.2233858619306001e-02 0.0000000000000000e+00  1.6030326346723512e-02 -4.2454748958107781e-02 0.0000000000000000e+00  1.6005266134548009e-02 -4.2640777667075455e-02 0.0000000000000000e+00  1.5982240012870463e-02 -4.2792945935060951e-02 0.0000000000000000e+00  1.4939390628285445e-02 -4.3907064176696327e-02 0.0000000000000000e+00  1.5057022056057892e-02 -4.3764111193410525e-02 0.0000000000000000e+00  1.5161171137558865e-02 -4.3621782337283643e-02 0.0000000000000000e+00  1.5249970901098673e-02 -4.3484630263791346e-02 0.0000000000000000e+00  1.5324181723211153e-02 -4.3356876945679967e-02 0.0000000000000000e+00  1.5386214309717448e-02 -4.3241793332979638e-02 0.0000000000000000e+00  1.5439528987067892e-02 -4.3142024584808703e-02 0.0000000000000000e+00  1.5488356072212807e-02 -4.3059660379822701e-02 0.0000000000000000e+00  1.5537594464474466e-02 -4.2996211327321190e-02 0.0000000000000000e+00  1.5592670237852563e-02 -4.2952375778806479e-02 0.0000000000000000e+00  1.5659695617813628e-02 -4.2927875482653796e-02 0.0000000000000000e+00  1.5744641691034275e-02 -4.2919680600458456e-02 0.0000000000000000e+00  1.5851127105382924e-02 -4.2922044757155997e-02 0.0000000000000000e+00  3.2607689035706336e-02 -9.0172623898645332e-02 0.0000000000000000e+00  3.2544682758197545e-02 -8.9087834545241468e-02 0.0000000000000000e+00  3.2477334947149786e-02 -8.7990897404553972e-02 0.0000000000000000e+00  3.2402621436757963e-02 -8.6876196297521718e-02 0.0000000000000000e+00  3.2316699326060516e-02 -8.5741680899980799e-02 0.0000000000000000e+00  3.2217037183157202e-02 -8.4587947812229100e-02 0.0000000000000000e+00  3.2102211320078088e-02 -8.3416977004127355e-02 0.0000000000000000e+00  3.1971564072111221e-02 -8.2231746499341229e-02 0.0000000000000000e+00  3.1825656569782611e-02 -8.1035667905875922e-02 0.0000000000000000e+00  3.1665626763904914e-02 -7.9832197496310084e-02 0.0000000000000000e+00  3.1493126083280677e-02 -7.8624589446592313e-02 0.0000000000000000e+00  3.1309978969634548e-02 -7.7415907715526797e-02 0.0000000000000000e+00  3.1118057215756886e-02 -7.6208939594280739e-02 0.0000000000000000e+00  3.0918996939910504e-02 -7.5006231632887485e-02 0.0000000000000000e+00  3.0714034542463076e-02 -7.3810244256563268e-02 0.0000000000000000e+00  3.0503863024291894e-02 -7.2623571177122079e-02 0.0000000000000000e+00  3.0288791789499683e-02 -7.1449021208151692e-02 0.0000000000000000e+00  3.0068331522579057e-02 -7.0290178409179616e-02 0.0000000000000000e+00  2.9841702108966063e-02 -6.9151276365042286e-02 0.0000000000000000e+00  2.9607658849572820e-02 -6.8037800822343605e-02 0.0000000000000000e+00  2.9364702539794833e-02 -6.6956985292858692e-02 0.0000000000000000e+00  2.9111182775250492e-02 -6.5918931621122445e-02 0.0000000000000000e+00  2.8845465791708744e-02 -6.4940868175078062e-02 0.0000000000000000e+00  2.8573721645496618e-02 -6.4056492670518647e-02 0.0000000000000000e+00  2.8306831369826264e-02 -6.3245947518231344e-02 0.0000000000000000e+00  2.8044729502043651e-02 -6.2487219336683927e-02 0.0000000000000000e+00  2.7786379572243104e-02 -6.1771569028543714e-02 0.0000000000000000e+00  2.7531470115919068e-02 -6.1093032552919077e-02 0.0000000000000000e+00  2.7279850691452823e-02 -6.0447290525486148e-02 0.0000000000000000e+00  2.7031846790380915e-02 -5.9830922520535387e-02 0.0000000000000000e+00  2.6788007420313249e-02 -5.9240934472899305e-02 0.0000000000000000e+00  2.6549169827080749e-02 -5.8674558661666716e-02 0.0000000000000000e+00  2.6316357385867913e-02 -5.8129080157741993e-02 0.0000000000000000e+00  2.6090597709883361e-02 -5.7601837151702251e-02 0.0000000000000000e+00  2.5873021080567236e-02 -5.7090027047211347e-02 0.0000000000000000e+00  2.5664575372112364e-02 -5.6590848926498065e-02 0.0000000000000000e+00  2.5466048269305725e-02 -5.6101540546852749e-02 0.000000000000