<?xml version="1.0"?>
<VTKFile type="UnstructuredGrid"  version="0.1"  >
<UnstructuredGrid>
<Piece  NumberOfPoints="12853" NumberOfCells="23493">
<Points>
<DataArray  type="Float64"  NumberOfComponents="3"  format="ascii">-3.187178156719634e-14 1.7 0  0 0 0  1.3 3 0  -3.185690647650846e-14 4.300000000000001 0  -3.187178156719634e-14 4.699999999999999 0  1.3 6 0  -3.185690647650846e-14 7.300000000000001 0  -3.187178156719634e-14 7.699999999999999 0  1.3 9 0  -3.185690647650846e-14 10.3 0  -3.187178156719634e-14 10.7 0  1.3 12 0  -3.185690647650846e-14 13.3 0  -3.187178156719634e-14 13.7 0  1.3 15 0  -3.185690647650846e-14 16.3 0  0 18 0  18 18 0  17.99999999999997 16.3 0  17.99999999999997 13.7 0  17.99999999999997 13.3 0  17.99999999999997 10.7 0  17.99999999999997 10.3 0  17.99999999999997 7.7 0  17.99999999999997 7.3 0  17.99999999999997 4.7 0  17.99999999999997 4.3 0  17.99999999999997 1.7 0  18 0 0  4.3 3 0  7.3 3 0  10.3 3 0  4.3 6 0  7.3 6 0  10.3 6 0  13.3 3 0  16.3 3 0  13.3 6 0  16.3 6 0  4.3 9 0  4.3 12 0  7.3 9 0  10.3 9 0  7.3 12 0  10.3 12 0  4.3 15 0  7.3 15 0  10.3 15 0  13.3 9 0  13.3 12 0  16.3 9 0  16.3 12 0  13.3 15 0  16.3 15 0  0 1.578571428571429 0  0 1.457142857142856 0  0 1.335714285714285 0  0 1.214285714285712 0  0 1.092857142857142 0  0 0.9714285714285715 0  0 0.8499999999999979 0  0 0.7285714285714278 0  0 0.6071428571428577 0  0 0.485714285714284 0  0 0.3642857142857139 0  0 0.2428571428571438 0  0 0.1214285714285701 0  0.1274222824284281 1.706259855326144 0  0.2536174186209668 1.7249791354758 0  0.3773700804308007 1.755977563548128 0  0.497488462074617 1.798956607735327 0  0.6128157578737968 1.853502356347138 0  0.7222413029254824 1.919089504006691 0  0.8247112694127393 1.995086410628442 0  0.9192388155425116 2.080761184457488 0  1.004913589371558 2.17528873058726 0  1.080910495993309 2.277758697074517 0  1.146497643652861 2.387184242126203 0  1.201043392264673 2.502511537925383 0  1.244022436451871 2.622629919569199 0  1.275020864524199 2.746382581379033 0  1.293740144673856 2.872577717571571 0  1.293740144673856 3.127422282428428 0  1.2750208645242 3.253617418620966 0  1.244022436451872 3.3773700804308 0  1.201043392264673 3.497488462074616 0  1.146497643652862 3.612815757873796 0  1.08091049599331 3.722241302925481 0  1.00491358937156 3.824711269412738 0  0.9192388155425134 3.91923881554251 0  0.8247112694127412 4.004913589371556 0  0.7222413029254846 4.080910495993308 0  0.6128157578737984 4.146497643652861 0  0.4974884620746181 4.201043392264673 0  0.3773700804308024 4.244022436451871 0  0.2536174186209674 4.275020864524199 0  0.127422282428429 4.293740144673856 0  0 4.6 0  0 4.5 0  0 4.4 0  0.1274222824284281 4.706259855326143 0  0.2536174186209668 4.724979135475801 0  0.3773700804308007 4.755977563548129 0  0.497488462074617 4.798956607735327 0  0.6128157578737968 4.853502356347138 0  0.7222413029254824 4.919089504006691 0  0.8247112694127393 4.995086410628442 0  0.9192388155425116 5.080761184457488 0  1.004913589371558 5.17528873058726 0  1.080910495993309 5.277758697074518 0  1.146497643652861 5.387184242126203 0  1.201043392264673 5.502511537925383 0  1.244022436451871 5.622629919569198 0  1.275020864524199 5.746382581379033 0  1.293740144673856 5.872577717571572 0  1.293740144673856 6.127422282428428 0  1.2750208645242 6.253617418620967 0  1.244022436451872 6.377370080430801 0  1.201043392264673 6.497488462074616 0  1.146497643652862 6.612815757873795 0  1.08091049599331 6.722241302925481 0  1.00491358937156 6.824711269412737 0  0.9192388155425134 6.91923881554251 0  0.8247112694127412 7.004913589371556 0  0.7222413029254846 7.080910495993308 0  0.6128157578737984 7.146497643652861 0  0.4974884620746181 7.201043392264673 0  0.3773700804308024 7.244022436451871 0  0.2536174186209674 7.275020864524199 0  0.127422282428429 7.293740144673856 0  0 7.6 0  0 7.5 0  0 7.4 0  0.1274222824284281 7.706259855326143 0  0.2536174186209668 7.724979135475801 0  0.3773700804308007 7.755977563548129 0  0.497488462074617 7.798956607735327 0  0.6128157578737968 7.853502356347138 0  0.7222413029254824 7.919089504006691 0  0.8247112694127393 7.995086410628442 0  0.9192388155425116 8.080761184457488 0  1.004913589371558 8.17528873058726 0  1.080910495993309 8.277758697074518 0  1.146497643652861 8.387184242126203 0  1.201043392264673 8.502511537925383 0  1.244022436451871 8.622629919569199 0  1.275020864524199 8.746382581379033 0  1.293740144673856 8.872577717571572 0  1.293740144673856 9.127422282428428 0  1.2750208645242 9.253617418620966 0  1.244022436451872 9.377370080430801 0  1.201043392264673 9.497488462074616 0  1.146497643652862 9.612815757873795 0  1.08091049599331 9.722241302925481 0  1.00491358937156 9.824711269412738 0  0.9192388155425134 9.91923881554251 0  0.8247112694127412 10.00491358937156 0  0.7222413029254846 10.08091049599331 0  0.6128157578737984 10.14649764365286 0  0.4974884620746181 10.20104339226467 0  0.3773700804308024 10.24402243645187 0  0.2536174186209674 10.2750208645242 0  0.127422282428429 10.29374014467386 0  0 10.6 0  0 10.5 0  0 10.4 0  0.1274222824284281 10.70625985532614 0  0.2536174186209668 10.7249791354758 0  0.3773700804308007 10.75597756354813 0  0.497488462074617 10.79895660773533 0  0.6128157578737968 10.85350235634714 0  0.7222413029254824 10.91908950400669 0  0.8247112694127393 10.99508641062844 0  0.9192388155425116 11.08076118445749 0  1.004913589371558 11.17528873058726 0  1.080910495993309 11.27775869707452 0  1.146497643652861 11.3871842421262 0  1.201043392264673 11.50251153792538 0  1.244022436451871 11.6226299195692 0  1.275020864524199 11.74638258137903 0  1.293740144673856 11.87257771757157 0  1.293740144673856 12.12742228242843 0  1.2750208645242 12.25361741862097 0  1.244022436451872 12.3773700804308 0  1.201043392264673 12.49748846207462 0  1.146497643652862 12.6128157578738 0  1.08091049599331 12.72224130292548 0  1.00491358937156 12.82471126941274 0  0.9192388155425134 12.91923881554251 0  0.8247112694127412 13.00491358937156 0  0.7222413029254846 13.08091049599331 0  0.6128157578737984 13.14649764365286 0  0.4974884620746181 13.20104339226467 0  0.3773700804308024 13.24402243645187 0  0.2536174186209674 13.2750208645242 0  0.127422282428429 13.29374014467386 0  0 13.6 0  0 13.5 0  0 13.4 0  0.1274222824284281 13.70625985532614 0  0.2536174186209668 13.7249791354758 0  0.3773700804308007 13.75597756354813 0  0.497488462074617 13.79895660773533 0  0.6128157578737968 13.85350235634714 0  0.7222413029254824 13.91908950400669 0  0.8247112694127393 13.99508641062844 0  0.9192388155425116 14.08076118445749 0  1.004913589371558 14.17528873058726 0  1.080910495993309 14.27775869707452 0  1.146497643652861 14.3871842421262 0  1.201043392264673 14.50251153792538 0  1.244022436451871 14.6226299195692 0  1.275020864524199 14.74638258137903 0  1.293740144673856 14.87257771757157 0  1.293740144673856 15.12742228242843 0  1.2750208645242 15.25361741862097 0  1.244022436451872 15.3773700804308 0  1.201043392264673 15.49748846207462 0  1.146497643652862 15.6128157578738 0  1.08091049599331 15.72224130292548 0  1.00491358937156 15.82471126941274 0  0.9192388155425134 15.91923881554251 0  0.8247112694127412 16.00491358937156 0  0.7222413029254846 16.08091049599331 0  0.6128157578737984 16.14649764365286 0  0.4974884620746181 16.20104339226467 0  0.3773700804308024 16.24402243645187 0  0.2536174186209674 16.2750208645242 0  0.127422282428429 16.29374014467385 0  0 17.87857142857143 0  0 17.75714285714286 0  0 17.63571428571429 0  0 17.51428571428571 0  0 17.39285714285714 0  0 17.27142857142857 0  0 17.15 0  0 17.02857142857143 0  0 16.90714285714286 0  0 16.78571428571428 0  0 16.66428571428571 0  0 16.54285714285714 0  0 16.42142857142857 0  17.8705035971223 18 0  17.7410071942446 18 0  17.61151079136691 18 0  17.48201438848921 18 0  17.35251798561151 18 0  17.22302158273381 18 0  17.09352517985612 18 0  16.96402877697842 18 0  16.83453237410072 18 0  16.70503597122302 18 0  16.57553956834532 18 0  16.44604316546762 18 0  16.31654676258993 18 0  16.18705035971223 18 0  16.05755395683453 18 0  15.92805755395683 18 0  15.79856115107913 18 0  15.66906474820144 18 0  15.53956834532374 18 0  15.41007194244604 18 0  15.28057553956834 18 0  15.15107913669064 18 0  15.02158273381295 18 0  14.89208633093525 18 0  14.76258992805755 18 0  14.63309352517985 18 0  14.50359712230215 18 0  14.37410071942446 18 0  14.24460431654676 18 0  14.11510791366906 18 0  13.98561151079136 18 0  13.85611510791366 18 0  13.72661870503597 18 0  13.59712230215827 18 0  13.46762589928057 18 0  13.33812949640287 18 0  13.20863309352517 18 0  13.07913669064748 18 0  12.94964028776977 18 0  12.82014388489208 18 0  12.69064748201438 18 0  12.56115107913668 18 0  12.43165467625898 18 0  12.30215827338128 18 0  12.17266187050359 18 0  12.04316546762589 18 0  11.91366906474819 18 0  11.78417266187049 18 0  11.65467625899279 18 0  11.52517985611509 18 0  11.3956834532374 18 0  11.2661870503597 18 0  11.136690647482 18 0  11.0071942446043 18 0  10.8776978417266 18 0  10.7482014388489 18 0  10.6187050359712 18 0  10.48920863309351 18 0  10.35971223021581 18 0  10.23021582733811 18 0  10.10071942446041 18 0  9.971223021582714 18 0  9.841726618705016 18 0  9.712230215827317 18 0  9.582733812949618 18 0  9.453237410071921 18 0  9.323741007194224 18 0  9.194244604316525 18 0  9.064748201438828 18 0  8.935251798561131 18 0  8.805755395683434 18 0  8.676258992805735 18 0  8.546762589928038 18 0  8.417266187050341 18 0  8.287769784172642 18 0  8.158273381294947 18 0  8.028776978417248 18 0  7.899280575539549 18 0  7.769784172661854 18 0  7.640287769784155 18 0  7.510791366906458 18 0  7.381294964028761 18 0  7.251798561151062 18 0  7.122302158273365 18 0  6.992805755395668 18 0  6.86330935251797 18 0  6.733812949640273 18 0  6.604316546762576 18 0  6.474820143884878 18 0  6.34532374100718 18 0  6.215827338129483 18 0  6.086330935251786 18 0  5.956834532374087 18 0  5.827338129496392 18 0  5.697
[...]
<PointData  Vectors="f_21"> 
<DataArray  type="Float64"  Name="f_21"  NumberOfComponents="3" format="ascii">-2.2851975387650633e-04 -1.7122283423764089e-04 0.0000000000000000e+00  0.0000000000000000e+00 0.0000000000000000e+00 0.0000000000000000e+00  -4.5804967325909456e-04 -1.5022573564264267e-03 0.0000000000000000e+00  -7.8600528920582237e-04 -2.7542102923491223e-03 0.0000000000000000e+00  -8.2784083542811876e-04 -2.7541795177137246e-03 0.0000000000000000e+00  -8.4671672530453905e-04 -3.7339765026055405e-03 0.0000000000000000e+00  -8.2836445462533819e-04 -4.7674741347476478e-03 0.0000000000000000e+00  -7.9899498424456598e-04 -4.7674306998767586e-03 0.0000000000000000e+00  -6.2246436310362560e-04 -6.0010687141935715e-03 0.0000000000000000e+00  -5.7367353169954617e-04 -7.0386549320980559e-03 0.0000000000000000e+00  -5.4042031132575555e-04 -7.0386105367284723e-03 0.0000000000000000e+00  -3.3813040593709136e-04 -8.2798785932066930e-03 0.0000000000000000e+00  -1.6115636018224959e-04 -9.1631701031549204e-03 0.0000000000000000e+00  -8.2538865464588099e-05 -9.1631361256820209e-03 0.0000000000000000e+00  2.9489446910788407e-04 -1.0563578037203699e-02 0.0000000000000000e+00  5.4668450148482684e-04 -1.1980695672669491e-02 0.0000000000000000e+00  4.1808106252066930e-04 -1.2244992984350571e-02 0.0000000000000000e+00  3.2055105715089712e-03 -1.6067567270585805e-02 0.0000000000000000e+00  1.7018164922420727e-03 -1.5907670856345403e-02 0.0000000000000000e+00  1.7055302073762683e-03 -1.1300974438893068e-02 0.0000000000000000e+00  1.7369954195076229e-03 -1.1301003911769164e-02 0.0000000000000000e+00  1.6083050617211761e-03 -8.9225318861005549e-03 0.0000000000000000e+00  1.5261119745856035e-03 -8.9225819629549161e-03 0.0000000000000000e+00  1.3081936264550250e-03 -5.9422366256406461e-03 0.0000000000000000e+00  1.2830497993496187e-03 -5.9422889362895923e-03 0.0000000000000000e+00  1.0253311488638223e-03 -3.3974233828113175e-03 0.0000000000000000e+00  9.4785342820388014e-04 -3.3974582452520586e-03 0.0000000000000000e+00  2.6220209273062202e-04 -1.9995029891530807e-04 0.0000000000000000e+00  0.0000000000000000e+00 0.0000000000000000e+00 0.0000000000000000e+00  -2.9931128977682582e-04 -1.4842054161698839e-03 0.0000000000000000e+00  -1.5160195709491072e-04 -1.4759371562099025e-03 0.0000000000000000e+00  -3.8973980810592162e-05 -1.4706408245161345e-03 0.0000000000000000e+00  -4.5306841581279977e-04 -3.8042651679821211e-03 0.0000000000000000e+00  -1.5687733713340142e-04 -3.8644401193799181e-03 0.0000000000000000e+00  1.7569362728118019e-04 -3.9158644603390852e-03 0.0000000000000000e+00  9.9624736213392353e-05 -1.5058034199284147e-03 0.0000000000000000e+00  2.7376230640430101e-04 -1.6629252747897517e-03 0.0000000000000000e+00  4.4964019699685103e-04 -4.0907104751209166e-03 0.0000000000000000e+00  9.0217091458083521e-04 -4.4629163938786813e-03 0.0000000000000000e+00  -3.2455164058072563e-04 -6.1696442085398331e-03 0.0000000000000000e+00  5.9427449364608307e-05 -8.5406618931272472e-03 0.0000000000000000e+00  5.8515043389604014e-05 -6.2799832290077878e-03 0.0000000000000000e+00  3.6574919280640459e-04 -6.3680666133718094e-03 0.0000000000000000e+00  3.3799183418650286e-04 -8.7029231624244901e-03 0.0000000000000000e+00  7.1030456755819752e-04 -8.7988283536548084e-03 0.0000000000000000e+00  4.9558501528914863e-04 -1.0923716105927206e-02 0.0000000000000000e+00  9.5243206256079597e-04 -1.1112725748595577e-02 0.0000000000000000e+00  1.1882295336082234e-03 -1.1175410006978252e-02 0.0000000000000000e+00  7.6449340425984575e-04 -6.6401074056034997e-03 0.0000000000000000e+00  8.8601346246819628e-04 -9.1708710805858806e-03 0.0000000000000000e+00  1.0273130871081399e-03 -7.2255256244894723e-03 0.0000000000000000e+00  1.4885430977089620e-03 -1.0013815247664714e-02 0.0000000000000000e+00  1.4562279984160164e-03 -1.1564333863582740e-02 0.0000000000000000e+00  9.9783154063059717e-04 -1.2922401681203510e-02 0.0000000000000000e+00  -2.3528847385153161e-04 -1.7161950477884239e-04 0.0000000000000000e+00  -2.4013193550782714e-04 -1.7304790579412779e-04 0.0000000000000000e+00  -2.4099287377189478e-04 -1.7415819584436752e-04 0.0000000000000000e+00  -2.3749477304470555e-04 -1.7388351932469523e-04 0.0000000000000000e+00  -2.2989332319893154e-04 -1.7150767961869148e-04 0.0000000000000000e+00  -2.1861676467218615e-04 -1.6672555463529323e-04 0.0000000000000000e+00  -2.0403675952967540e-04 -1.5944534850536820e-04 0.0000000000000000e+00  -1.8642931394719425e-04 -1.4960718601079092e-04 0.0000000000000000e+00  -1.6592760581509277e-04 -1.3713308433619989e-04 0.0000000000000000e+00  -1.4251710093225717e-04 -1.2181803568252829e-04 0.0000000000000000e+00  -1.1600308981196756e-04 -1.0323121872237172e-04 0.0000000000000000e+00  -8.5908873159077910e-05 -8.0419396649429478e-05 0.0000000000000000e+00  -5.0314797742691559e-05 -5.1098139651492577e-05 0.0000000000000000e+00  -2.2765077549478891e-04 -1.7810199713854340e-04 0.0000000000000000e+00  -2.2451298260365565e-04 -1.8772458495214405e-04 0.0000000000000000e+00  -2.2005045642550133e-04 -2.0394481168332126e-04 0.0000000000000000e+00  -2.1606760546202545e-04 -2.2903564690943787e-04 0.0000000000000000e+00  -2.1352574503928396e-04 -2.6406893498473054e-04 0.0000000000000000e+00  -2.1361183782469024e-04 -3.0981518140981649e-04 0.0000000000000000e+00  -2.1722640561026252e-04 -3.6668917095723314e-04 0.0000000000000000e+00  -2.2494837633657951e-04 -4.3518369077351847e-04 0.0000000000000000e+00  -2.3736450184936851e-04 -5.1589476434559748e-04 0.0000000000000000e+00  -2.5466701211957166e-04 -6.0977380521504024e-04 0.0000000000000000e+00  -2.7695687578760294e-04 -7.1822150057394764e-04 0.0000000000000000e+00  -3.0415202874836005e-04 -8.4278740279423786e-04 0.0000000000000000e+00  -3.3616869849712366e-04 -9.8516157136905127e-04 0.0000000000000000e+00  -3.7303878499774152e-04 -1.1453240485215796e-03 0.0000000000000000e+00  -4.1431333536804944e-04 -1.3196438547243112e-03 0.0000000000000000e+00  -5.0017634298659937e-04 -1.6825481751732737e-03 0.0000000000000000e+00  -5.3709114033652979e-04 -1.8524471744002830e-03 0.0000000000000000e+00  -5.6679663541537608e-04 -2.0075535185197931e-03 0.0000000000000000e+00  -5.9009998728121226e-04 -2.1465424792791541e-03 0.0000000000000000e+00  -6.1029493443086412e-04 -2.2702458280347321e-03 0.0000000000000000e+00  -6.3081621118674818e-04 -2.3792887955644652e-03 0.0000000000000000e+00  -6.5394996570939908e-04 -2.4732035734710547e-03 0.0000000000000000e+00  -6.7985569551001638e-04 -2.5508186749531743e-03 0.0000000000000000e+00  -7.0710813247883315e-04 -2.6112080064808587e-03 0.0000000000000000e+00  -7.3282588986605269e-04 -2.6546913044694230e-03 0.0000000000000000e+00  -7.5409919387501862e-04 -2.6836635887467044e-03 0.0000000000000000e+00  -7.6917402847656775e-04 -2.7024822356419968e-03 0.0000000000000000e+00  -7.7836246250873715e-04 -2.7160535356455045e-03 0.0000000000000000e+00  -7.8316720027259601e-04 -2.7283937406143008e-03 0.0000000000000000e+00  -7.8537367922196146e-04 -2.7410772523350406e-03 0.0000000000000000e+00  -8.1729412474393771e-04 -2.7541755549085347e-03 0.0000000000000000e+00  -8.0681597591374793e-04 -2.7541950809720096e-03 0.0000000000000000e+00  -7.9637587789562424e-04 -2.7542143676223007e-03 0.0000000000000000e+00  -8.2851789289224644e-04 -2.7406591203084502e-03 0.0000000000000000e+00  -8.3022907413034806e-04 -2.7269450601955141e-03 0.0000000000000000e+00  -8.3189760331745237e-04 -2.7133658070386301e-03 0.0000000000000000e+00  -8.3174158893279011e-04 -2.7018833605034795e-03 0.0000000000000000e+00  -8.2792342523124946e-04 -2.6965191338535221e-03 0.0000000000000000e+00  -8.2045285451051774e-04 -2.7028562396139576e-03 0.0000000000000000e+00  -8.1061385169601326e-04 -2.7252794233930456e-03 0.0000000000000000e+00  -8.0163491102474259e-04 -2.7668199976881597e-03 0.0000000000000000e+00  -7.9656085819821136e-04 -2.8280216189982645e-03 0.0000000000000000e+00  -7.9747220150041360e-04 -2.9080623936173469e-03 0.0000000000000000e+00  -8.0471172206502317e-04 -3.0057355192584759e-03 0.0000000000000000e+00  -8.1643725155220999e-04 -3.1199743644818542e-03 0.0000000000000000e+00  -8.2958150712829826e-04 -3.2512475198845361e-03 0.0000000000000000e+00  -8.4037882054243253e-04 -3.3990176246468159e-03 0.0000000000000000e+00  -8.4641899543853904e-04 -3.5619334506908733e-03 0.0000000000000000e+00  -8.4131823811969678e-04 -3.9066888084326908e-03 0.0000000000000000e+00  -8.3113918513125717e-04 -4.0708889522799484e-03 0.0000000000000000e+00  -8.1760763858375904e-04 -4.2211761857371098e-03 0.0000000000000000e+00  -8.0324181125196784e-04 -4.3549042725942819e-03 0.0000000000000000e+00  -7.9122398981583289e-04 -4.4723012971826662e-03 0.0000000000000000e+00  -7.8452504889357051e-04 -4.5732610338334980e-03 0.0000000000000000e+00  -7.8466361015209552e-04 -4.6569501366973123e-03 0.0000000000000000e+00  -7.9110386557143606e-04 -4.7221360239856286e-03 0.0000000000000000e+00  -8.0188794479242077e-04 -4.7679342496688409e-03 0.0000000000000000e+00  -8.1370628690949505e-04 -4.7947719368486514e-03 0.0000000000000000e+00  -8.2335051004312073e-04 -4.8052650314865360e-03 0.0000000000000000e+00  -8.2888996141356516e-04 -4.8040737125411553e-03 0.0000000000000000e+00  -8.3058279700561955e-04 -4.7964576685549576e-03 0.0000000000000000e+00  -8.2994587149555347e-04 -4.7868107706886308e-03 0.0000000000000000e+00  -8.2884501553911289e-04 -4.7770265276308047e-03 0.0000000000000000e+00  -8.0625177579818396e-04 -4.7674277314567687e-03 0.0000000000000000e+00  -8.1357741001465884e-04 -4.7674526221846850e-03 0.0000000000000000e+00  -8.2093600802309128e-04 -4.7674772564016057e-03 0.0000000000000000e+00  -7.9855545104892537e-04 -4.7765904794530032e-03 0.0000000000000000e+00  -7.9690999125491533e-04 -4.7853377108642405e-03 0.0000000000000000e+00  -7.9298210917778359e-04 -4.7938303066863515e-03 0.0000000000000000e+00  -7.8503807170917392e-04 -4.8039254258152204e-03 0.0000000000000000e+00  -7.7136817796094994e-04 -4.8195658021433314e-03 0.0000000000000000e+00  -7.5223758364200300e-04 -4.8461991943813338e-03 0.0000000000000000e+00  -7.2921726893582293e-04 -4.8879526376696628e-03 0.0000000000000000e+00  -7.0579215588974036e-04 -4.9475244271767966e-03 0.0000000000000000e+00  -6.8516264749175976e-04 -5.0251556970421114e-03 0.0000000000000000e+00  -6.6952134153456708e-04 -5.1198504179406643e-03 0.0000000000000000e+00  -6.5937046364202088e-04 -5.2303715875029284e-03 0.0000000000000000e+00  -6.5321755720948427e-04 -5.3558145890233860e-03 0.0000000000000000e+00  -6.4860041660962011e-04 -5.4968366656693588e-03 0.0000000000000000e+00  -6.4271714347290858e-04 -5.6529817222800826e-03 0.0000000000000000e+00  -6.3406206025447916e-04 -5.8230633912440153e-03 0.0000000000000000e+00  -6.0825377714884561e-04 -6.1785509134212315e-03 0.0000000000000000e+00  -5.9203551232547879e-04 -6.3460182747301190e-03 0.0000000000000000e+00  -5.7449856360062375e-04 -6.4986501759875474e-03 0.0000000000000000e+00  -5.5733072586633750e-04 -6.6339800003596032e-03 0.0000000000000000e+00  -5.4340710794739189e-04 -6.7520512159781870e-03 0.0000000000000000e+00  -5.3528239329350940e-04 -6.8533006989517442e-03 0.0000000000000000e+00  -5.3428857118260334e-04 -6.9369071805447579e-03 0.0000000000000000e+00  -5.3989561449706411e-04 -7.0017065347031905e-03 0.0000000000000000e+00  -5.4986619391665637e-04 -7.0468611109723309e-03 0.0000000000000000e+00  -5.6099950189540464e-04 -7.0728819837525348e-03 0.0000000000000000e+00  -5.7012555220349148e-04 -7.0823325554230047e-03 0.0000000000000000e+00  -5.7512871189640104e-04 -7.0800778609417412e-03 0.0000000000000000e+00  -5.7642809511120974e-04 -7.0713302877178450e-03 0.0000000000000000e+00  -5.7549822556813115e-04 -7.0604550754308770e-03 0.0000000000000000e+00  -5.7421433201078830e-04 -7.0494443662420187e-03 0.0000000000000000e+00  -5.4864829758826501e-04 -7.0386076700245052e-03 0.0000000000000000e+00  -5.5694506788270541e-04 -7.0386330625988765e-03 0.0000000000000000e+00  -5.6527468061333961e-04 -7.0386580092839978e-03 0.0000000000000000e+00  -5.3991980030019941e-04 -7.0490077019751008e-03 0.0000000000000000e+00  -5.3809041734066611e-04 -7.0589817501386116e-03 0.0000000000000000e+00  -5.3386146901174313e-04 -7.0686774368171621e-03 0.0000000000000000e+00  -5.2549278001078720e-04 -7.0799504419897345e-03 0.0000000000000000e+00  -5.1126291033716498e-04 -7.0967192775731941e-03 0.0000000000000000e+00  -4.9141252754492440e-04 -7.1244503809556430e-03 0.0000000000000000e+00  -4.6759130571178879e-04 -7.1673159367769100e-03 0.0000000000000000e+00  -4.4331778934163799e-04 -7.2278954134137111e-03 0.0000000000000000e+00  -4.2168982273451040e-04 -7.3063712784748672e-03 0.0000000000000000e+00  -4.0491535769244505e-04 -7.4018046855548036e-03 0.0000000000000000e+00  -3.9336442115628129e-04 -7.5127689480144486e-03 0.0000000000000000e+00  -3.8550873253974881e-04 -7.6386469579305385e-03 0.0000000000000000e+00  -3.7850231578640675e-04 -7.7794994810773338e-03 0.0000000000000000e+00  -3.6936042297579474e-04 -7.9350266910035369e-03 0.0000000000000000e+00  -3.5609650499909986e-04 -8.1038581088477921e-03 0.0000000000000000e+00  -3.1563061113196335e-04 -8.4545758583907671e-03 0.0000000000000000e+00  -2.8942381603920927e-04 -8.6184407129794669e-03 0.0000000000000000e+00  -2.6070733176430103e-04 -8.7665746254099158e-03 0.0000000000000000e+00  -2.3177579550230952e-04 -8.8964565985022934e-03 0.0000000000000000e+00  -2.0603873410902774e-04 -9.0080422760587375e-03 0.0000000000000000e+00  -1.8643734901062557e-04 -9.1016914845129856e-03 0.0000000000000000e+00  -1.7455083458269127e-04 -9.1765370278282851e-03 0.0000000000000000e+00  -1.6999180800258818e-04 -9.2314299400834375e-03 0.0000000000000000e+00  -1.7062147494698414e-04 -9.2656175333227196e-03 0.0000000000000000e+00  -1.7333889442314063e-04 -9.2797546377348956e-03 0.0000000000000000e+00  -1.7509261068331572e-04 -9.2765742746996303e-03 0.0000000000000000e+00  -1.7390079962856882e-04 -9.2610975551106391e-03 0.0000000000000000e+00  -1.7029436113525731e-04 -9.2386620532324340e-03 0.0000000000000000e+00  -1.6582638944399007e-04 -9.2137341297382439e-03 0.0000000000000000e+00  -1.6240991756442133e-04 -9.1884104719404166e-03 0.0000000000000000e+00  -1.0210667116278060e-04 -9.1631314098711992e-03 0.0000000000000000e+00  -1.2174348568010182e-04 -9.1631534501655839e-03 0.0000000000000000e+00  -1.4141519744620816e-04 -9.1631750465263079e-03 0.0000000000000000e+00  -8.1331191465970138e-05 -9.1879844456083729e-03 0.0000000000000000e+00  -7.7388366032444872e-05 -9.2122694121304968e-03 0.0000000000000000e+00  -6.9667055358725940e-05 -9.2359826621012161e-03 0.0000000000000000e+00  -5.6457832102111286e-05 -9.2608119894651234e-03 0.0000000000000000e+00  -3.6063367436742426e-05 -9.2905064162611961e-03 0.0000000000000000e+00  -8.7193680737910564e-06 -9.3303746936347215e-03 0.0000000000000000e+00  2.3945290250617895e-05 -9.3844627011419931e-03 0.0000000000000000e+00  5.8465403993888666e-05 -9.4552540218127267e-03 0.0000000000000000e+00  9.1822832786350923e-05 -9.5428740677005446e-03 0.0000000000000000e+00  1.2191885394927964e-04 -9.6463794855669444e-03 0.0000000000000000e+00  1.4849425118997363e-04 -9.7644251002813251e-03 0.0000000000000000e+00  1.7313933359973602e-04 -9.8965656245196560e-03 0.0000000000000000e+00  1.9856714564138851e-04 -1.0043204067388839e-02 0.0000000000000000e+00  2.2720323841125199e-04 -1.0204573291119986e-02 0.0000000000000000e+00  2.5979970979776024e-04 -1.0379979644145268e-02 0.0000000000000000e+00  3.3011968916129306e-04 -1.0747263877799508e-02 0.0000000000000000e+00  3.6345614533491057e-04 -1.0920906191332246e-02 0.0000000000000000e+00  3.9436723798423471e-04 -1.1078862882482223e-02 0.0000000000000000e+00  4.2308932324389695e-04 -1.1217860549192956e-02 0.0000000000000000e+00  4.5009704831129994e-04 -1.1338559833240449e-02 0.0000000000000000e+00  4.7530451819489456e-04 -1.1443432210331774e-02 0.0000000000000000e+00  4.9824728428288537e-04 -1.1535147993727487e-02 0.0000000000000000e+00  5.1823905468759601e-04 -1.1616127030656934e-02 0.0000000000000000e+00  5.3452443744668628e-04 -1.1688233971059760e-02 0.0000000000000000e+00  5.4658427422193782e-04 -1.1752582486834294e-02 0.0000000000000000e+00  5.5407389440248250e-04 -1.1809710930763002e-02 0.0000000000000000e+00  5.5700504715954738e-04 -1.1859430808225083e-02 0.0000000000000000e+00  5.5607572583865389e-04 -1.1901280017708909e-02 0.0000000000000000e+00  5.5232685833076368e-04 -1.1934729716377048e-02 0.0000000000000000e+00  5.4830723284663861e-04 -1.1960156365468331e-02 0.0000000000000000e+00  4.3803994246126846e-04 -1.2210199302849712e-02 0.0000000000000000e+00  4.5486742332531737e-04 -1.2175544094447778e-02 0.0000000000000000e+00  4.6812335883699655e-04 -1.2141736973694132e-02 0.0000000000000000e+00  4.7782598822651074e-04 -1.2109541136916880e-02 0.0000000000000000e+00  4.8430077481276636e-04 -1.2079747245865888e-02 0.0000000000000000e+00  4.8814069779586517e-04 -1.2053032348378684e-02 0.0000000000000000e+00  4.9015820217893004e-04 -1.2029977801959574e-02 0.0000000000000000e+00  4.9134461219363802e-04 -1.2011051874872636e-02 0.0000000000000000e+00  4.9284718772678337e-04 -1.1996580671787639e-02 0.0000000000000000e+00  4.9592495971244658e-04 -1.1986694906476355e-02 0.0000000000000000e+00  5.0197427239135402e-04 -1.1981276426478896e-02 0.0000000000000000e+00  5.1232344039213115e-04 -1.1979568824248055e-02 0.0000000000000000e+00  5.2771730927920959e-04 -1.1980208620967502e-02 0.0000000000000000e+00  3.1986886707772075e-03 -1.5984495101530154e-02 0.0000000000000000e+00  3.1915357169064961e-03 -1.5900421064210978e-02 0.0000000000000000e+00  3.1849820334970240e-03 -1.5806932645806404e-02 0.0000000000000000e+00  3.1776684507790827e-03 -1.5698379948600273e-02 0.0000000000000000e+00  3.1666975652151208e-03 -1.5575208778343393e-02 0.0000000000000000e+00  3.1502210622774878e-03 -1.5443652785583295e-02 0.0000000000000000e+00  3.1284192105800607e-03 -1.5311431346060510e-02 0.0000000000000000e+00  3.1024258633088144e-03 -1.5182459172005719e-02 0.0000000000000000e+00  3.0733232176429221e-03 -1.5056722748383829e-02 0.0000000000000000e+00  3.0419088516055104e-03 -1.4934733116254548e-02 0.0000000000000000e+00  3.0090064831737725e-03 -1.4816271302852544e-02 0.0000000000000000e+00  2.9754893096612047e-03 -1.4699810399124762e-02 0.0000000000000000e+00  2.9417093027324266e-03 -1.4583303308522146e-02 0.0000000000000000e+00  2.9075599054582770e-03 -1.4465235029007319e-02 0.0000000000000000e+00  2.8726008874369420e-03 -1.4345643497854707e-02 0.0000000000000000e+00  2.8364498944733565e-03 -1.4226835190563275e-02 0.0000000000000000e+00  2.7993402298268823e-03 -1.4112604639297097e-02 0.0000000000000000e+00  2.7625021126408494e-03 -1.4004432436995810e-02 0.0000000000000000e+00  2.7265952238689326e-03 -1.3899949574778281e-02 0.0000000000000000e+00  2.6914202143256036e-03 -1.3795443104297931e-02 0.0000000000000000e+00  2.6557229915456794e-03 -1.3688616252424544e-02 0.0000000000000000e+00  2.6177090142754304e-03 -1.3580644010602317e-02 0.0000000000000000e+00  2.5757353908744491e-03 -1.3477483306764522e-02 0.0000000000000000e+00  2.5306702807240617e-03 -1.3390381729133318e-02 0.0000000000000000e+00  2.4844518386343242e-03 -1.3316936056175885e-02 0.0000000000000000e+00  2.4366919634333279e-03 -1.3257574428854764e-02 0.0000000000000000e+00  2.3878489524000019e-03 -1.3217195607456711e-02 0.0000000000000000e+00  2.3399786819973773e-03 -1.3197989609144449e-02 0.0000000000000000e+00  2.2956694385103172e-03 -1.3196272932758719e-02 0.0000000000000000e+00  2.2560442611203519e-03 -1.3204250396843075e-02 0.0000000000000000e+00  2.2211358137251601e-03 -1.3214006560079677e-02 0.0000000000000000e+00  2.1904392496565140e-03 -1.3220115922306888e-02 0.0000000000000000e+00  2.1627675773603383e-03 -1.3217368271628163e-02 0.0000000000000000e+00  2.1368633385657702e-03 -1.3203311589553204e-02 0.0000000000000000e+00  2.1109400317673235e-03 -1.3179589037038692e-02 0.0000000000000000e+00  2.0842066782981302e-03 -1.3151255280479279e-02 0.00000000