<?xml version="1.0"?>
<VTKFile type="UnstructuredGrid"  version="0.1"  >
<UnstructuredGrid>
<Piece  NumberOfPoints="12853" NumberOfCells="23493">
<Points>
<DataArray  type="Float64"  NumberOfComponents="3"  format="ascii">-3.187178156719634e-14 1.7 0  0 0 0  1.3 3 0  -3.185690647650846e-14 4.300000000000001 0  -3.187178156719634e-14 4.699999999999999 0  1.3 6 0  -3.185690647650846e-14 7.300000000000001 0  -3.187178156719634e-14 7.699999999999999 0  1.3 9 0  -3.185690647650846e-14 10.3 0  -3.187178156719634e-14 10.7 0  1.3 12 0  -3.185690647650846e-14 13.3 0  -3.187178156719634e-14 13.7 0  1.3 15 0  -3.185690647650846e-14 16.3 0  0 18 0  18 18 0  17.99999999999997 16.3 0  17.99999999999997 13.7 0  17.99999999999997 13.3 0  17.99999999999997 10.7 0  17.99999999999997 10.3 0  17.99999999999997 7.7 0  17.99999999999997 7.3 0  17.99999999999997 4.7 0  17.99999999999997 4.3 0  17.99999999999997 1.7 0  18 0 0  4.3 3 0  7.3 3 0  10.3 3 0  4.3 6 0  7.3 6 0  10.3 6 0  13.3 3 0  16.3 3 0  13.3 6 0  16.3 6 0  4.3 9 0  4.3 12 0  7.3 9 0  10.3 9 0  7.3 12 0  10.3 12 0  4.3 15 0  7.3 15 0  10.3 15 0  13.3 9 0  13.3 12 0  16.3 9 0  16.3 12 0  13.3 15 0  16.3 15 0  0 1.578571428571429 0  0 1.457142857142856 0  0 1.335714285714285 0  0 1.214285714285712 0  0 1.092857142857142 0  0 0.9714285714285715 0  0 0.8499999999999979 0  0 0.7285714285714278 0  0 0.6071428571428577 0  0 0.485714285714284 0  0 0.3642857142857139 0  0 0.2428571428571438 0  0 0.1214285714285701 0  0.1274222824284281 1.706259855326144 0  0.2536174186209668 1.7249791354758 0  0.3773700804308007 1.755977563548128 0  0.497488462074617 1.798956607735327 0  0.6128157578737968 1.853502356347138 0  0.7222413029254824 1.919089504006691 0  0.8247112694127393 1.995086410628442 0  0.9192388155425116 2.080761184457488 0  1.004913589371558 2.17528873058726 0  1.080910495993309 2.277758697074517 0  1.146497643652861 2.387184242126203 0  1.201043392264673 2.502511537925383 0  1.244022436451871 2.622629919569199 0  1.275020864524199 2.746382581379033 0  1.293740144673856 2.872577717571571 0  1.293740144673856 3.127422282428428 0  1.2750208645242 3.253617418620966 0  1.244022436451872 3.3773700804308 0  1.201043392264673 3.497488462074616 0  1.146497643652862 3.612815757873796 0  1.08091049599331 3.722241302925481 0  1.00491358937156 3.824711269412738 0  0.9192388155425134 3.91923881554251 0  0.8247112694127412 4.004913589371556 0  0.7222413029254846 4.080910495993308 0  0.6128157578737984 4.146497643652861 0  0.4974884620746181 4.201043392264673 0  0.3773700804308024 4.244022436451871 0  0.2536174186209674 4.275020864524199 0  0.127422282428429 4.293740144673856 0  0 4.6 0  0 4.5 0  0 4.4 0  0.1274222824284281 4.706259855326143 0  0.2536174186209668 4.724979135475801 0  0.3773700804308007 4.755977563548129 0  0.497488462074617 4.798956607735327 0  0.6128157578737968 4.853502356347138 0  0.7222413029254824 4.919089504006691 0  0.8247112694127393 4.995086410628442 0  0.9192388155425116 5.080761184457488 0  1.004913589371558 5.17528873058726 0  1.080910495993309 5.277758697074518 0  1.146497643652861 5.387184242126203 0  1.201043392264673 5.502511537925383 0  1.244022436451871 5.622629919569198 0  1.275020864524199 5.746382581379033 0  1.293740144673856 5.872577717571572 0  1.293740144673856 6.127422282428428 0  1.2750208645242 6.253617418620967 0  1.244022436451872 6.377370080430801 0  1.201043392264673 6.497488462074616 0  1.146497643652862 6.612815757873795 0  1.08091049599331 6.722241302925481 0  1.00491358937156 6.824711269412737 0  0.9192388155425134 6.91923881554251 0  0.8247112694127412 7.004913589371556 0  0.7222413029254846 7.080910495993308 0  0.6128157578737984 7.146497643652861 0  0.4974884620746181 7.201043392264673 0  0.3773700804308024 7.244022436451871 0  0.2536174186209674 7.275020864524199 0  0.127422282428429 7.293740144673856 0  0 7.6 0  0 7.5 0  0 7.4 0  0.1274222824284281 7.706259855326143 0  0.2536174186209668 7.724979135475801 0  0.3773700804308007 7.755977563548129 0  0.497488462074617 7.798956607735327 0  0.6128157578737968 7.853502356347138 0  0.7222413029254824 7.919089504006691 0  0.8247112694127393 7.995086410628442 0  0.9192388155425116 8.080761184457488 0  1.004913589371558 8.17528873058726 0  1.080910495993309 8.277758697074518 0  1.146497643652861 8.387184242126203 0  1.201043392264673 8.502511537925383 0  1.244022436451871 8.622629919569199 0  1.275020864524199 8.746382581379033 0  1.293740144673856 8.872577717571572 0  1.293740144673856 9.127422282428428 0  1.2750208645242 9.253617418620966 0  1.244022436451872 9.377370080430801 0  1.201043392264673 9.497488462074616 0  1.146497643652862 9.612815757873795 0  1.08091049599331 9.722241302925481 0  1.00491358937156 9.824711269412738 0  0.9192388155425134 9.91923881554251 0  0.8247112694127412 10.00491358937156 0  0.7222413029254846 10.08091049599331 0  0.6128157578737984 10.14649764365286 0  0.4974884620746181 10.20104339226467 0  0.3773700804308024 10.24402243645187 0  0.2536174186209674 10.2750208645242 0  0.127422282428429 10.29374014467386 0  0 10.6 0  0 10.5 0  0 10.4 0  0.1274222824284281 10.70625985532614 0  0.2536174186209668 10.7249791354758 0  0.3773700804308007 10.75597756354813 0  0.497488462074617 10.79895660773533 0  0.6128157578737968 10.85350235634714 0  0.7222413029254824 10.91908950400669 0  0.8247112694127393 10.99508641062844 0  0.9192388155425116 11.08076118445749 0  1.004913589371558 11.17528873058726 0  1.080910495993309 11.27775869707452 0  1.146497643652861 11.3871842421262 0  1.201043392264673 11.50251153792538 0  1.244022436451871 11.6226299195692 0  1.275020864524199 11.74638258137903 0  1.293740144673856 11.87257771757157 0  1.293740144673856 12.12742228242843 0  1.2750208645242 12.25361741862097 0  1.244022436451872 12.3773700804308 0  1.201043392264673 12.49748846207462 0  1.146497643652862 12.6128157578738 0  1.08091049599331 12.72224130292548 0  1.00491358937156 12.82471126941274 0  0.9192388155425134 12.91923881554251 0  0.8247112694127412 13.00491358937156 0  0.7222413029254846 13.08091049599331 0  0.6128157578737984 13.14649764365286 0  0.4974884620746181 13.20104339226467 0  0.3773700804308024 13.24402243645187 0  0.2536174186209674 13.2750208645242 0  0.127422282428429 13.29374014467386 0  0 13.6 0  0 13.5 0  0 13.4 0  0.1274222824284281 13.70625985532614 0  0.2536174186209668 13.7249791354758 0  0.3773700804308007 13.75597756354813 0  0.497488462074617 13.79895660773533 0  0.6128157578737968 13.85350235634714 0  0.7222413029254824 13.91908950400669 0  0.8247112694127393 13.99508641062844 0  0.9192388155425116 14.08076118445749 0  1.004913589371558 14.17528873058726 0  1.080910495993309 14.27775869707452 0  1.146497643652861 14.3871842421262 0  1.201043392264673 14.50251153792538 0  1.244022436451871 14.6226299195692 0  1.275020864524199 14.74638258137903 0  1.293740144673856 14.87257771757157 0  1.293740144673856 15.12742228242843 0  1.2750208645242 15.25361741862097 0  1.244022436451872 15.3773700804308 0  1.201043392264673 15.49748846207462 0  1.146497643652862 15.6128157578738 0  1.08091049599331 15.72224130292548 0  1.00491358937156 15.82471126941274 0  0.9192388155425134 15.91923881554251 0  0.8247112694127412 16.00491358937156 0  0.7222413029254846 16.08091049599331 0  0.6128157578737984 16.14649764365286 0  0.4974884620746181 16.20104339226467 0  0.3773700804308024 16.24402243645187 0  0.2536174186209674 16.2750208645242 0  0.127422282428429 16.29374014467385 0  0 17.87857142857143 0  0 17.75714285714286 0  0 17.63571428571429 0  0 17.51428571428571 0  0 17.39285714285714 0  0 17.27142857142857 0  0 17.15 0  0 17.02857142857143 0  0 16.90714285714286 0  0 16.78571428571428 0  0 16.66428571428571 0  0 16.54285714285714 0  0 16.42142857142857 0  17.8705035971223 18 0  17.7410071942446 18 0  17.61151079136691 18 0  17.48201438848921 18 0  17.35251798561151 18 0  17.22302158273381 18 0  17.09352517985612 18 0  16.96402877697842 18 0  16.83453237410072 18 0  16.70503597122302 18 0  16.57553956834532 18 0  16.44604316546762 18 0  16.31654676258993 18 0  16.18705035971223 18 0  16.05755395683453 18 0  15.92805755395683 18 0  15.79856115107913 18 0  15.66906474820144 18 0  15.53956834532374 18 0  15.41007194244604 18 0  15.28057553956834 18 0  15.15107913669064 18 0  15.02158273381295 18 0  14.89208633093525 18 0  14.76258992805755 18 0  14.63309352517985 18 0  14.50359712230215 18 0  14.37410071942446 18 0  14.24460431654676 18 0  14.11510791366906 18 0  13.98561151079136 18 0  13.85611510791366 18 0  13.72661870503597 18 0  13.59712230215827 18 0  13.46762589928057 18 0  13.33812949640287 18 0  13.20863309352517 18 0  13.07913669064748 18 0  12.94964028776977 18 0  12.82014388489208 18 0  12.69064748201438 18 0  12.56115107913668 18 0  12.43165467625898 18 0  12.30215827338128 18 0  12.17266187050359 18 0  12.04316546762589 18 0  11.91366906474819 18 0  11.78417266187049 18 0  11.65467625899279 18 0  11.52517985611509 18 0  11.3956834532374 18 0  11.2661870503597 18 0  11.136690647482 18 0  11.0071942446043 18 0  10.8776978417266 18 0  10.7482014388489 18 0  10.6187050359712 18 0  10.48920863309351 18 0  10.35971223021581 18 0  10.23021582733811 18 0  10.10071942446041 18 0  9.971223021582714 18 0  9.841726618705016 18 0  9.712230215827317 18 0  9.582733812949618 18 0  9.453237410071921 18 0  9.323741007194224 18 0  9.194244604316525 18 0  9.064748201438828 18 0  8.935251798561131 18 0  8.805755395683434 18 0  8.676258992805735 18 0  8.546762589928038 18 0  8.417266187050341 18 0  8.287769784172642 18 0  8.158273381294947 18 0  8.028776978417248 18 0  7.899280575539549 18 0  7.769784172661854 18 0  7.640287769784155 18 0  7.510791366906458 18 0  7.381294964028761 18 0  7.251798561151062 18 0  7.122302158273365 18 0  6.992805755395668 18 0  6.86330935251797 18 0  6.733812949640273 18 0  6.604316546762576 18 0  6.474820143884878 18 0  6.34532374100718 18 0  6.215827338129483 18 0  6.086330935251786 18 0  5.956834532374087 18 0  5.827338129496392 18 0  5.697
[...]
<PointData  Vectors="f_21"> 
<DataArray  type="Float64"  Name="f_21"  NumberOfComponents="3" format="ascii">-3.6071845008735053e-03 -2.6917787403380683e-03 0.0000000000000000e+00  0.0000000000000000e+00 0.0000000000000000e+00 0.0000000000000000e+00  -6.1622725659673389e-03 -2.3655028889542466e-02 0.0000000000000000e+00  -8.4010307319915649e-03 -4.0954623691213388e-02 0.0000000000000000e+00  -8.2354675128220745e-03 -4.0954210144393662e-02 0.0000000000000000e+00  -3.9861669902385207e-03 -5.8846292562980899e-02 0.0000000000000000e+00  3.7157857399478674e-03 -6.9554898573755963e-02 0.0000000000000000e+00  6.1469059203302272e-03 -6.9561670958806207e-02 0.0000000000000000e+00  1.8152884537722874e-02 -9.5587546728244432e-02 0.0000000000000000e+00  2.8767867195812920e-02 -1.0649701775117527e-01 0.0000000000000000e+00  3.1595485510074711e-02 -1.0650635385548768e-01 0.0000000000000000e+00  4.6785953124681694e-02 -1.3392642320429898e-01 0.0000000000000000e+00  6.6055833762505220e-02 -1.3744090528132796e-01 0.0000000000000000e+00  7.1458126579232992e-02 -1.3747692354228525e-01 0.0000000000000000e+00  9.7330726660620606e-02 -1.7537703073282057e-01 0.0000000000000000e+00  1.1049921955255465e-01 -2.0780187391078414e-01 0.0000000000000000e+00  1.0572807926256478e-01 -2.1342317390069640e-01 0.0000000000000000e+00  1.9759767670921483e-01 -4.7460294441678652e-01 0.0000000000000000e+00  1.1019431178656396e-01 -4.6629466149768284e-01 0.0000000000000000e+00  9.1937850600402937e-02 -3.0148886845887907e-01 0.0000000000000000e+00  9.2028327148768629e-02 -3.0148915227306583e-01 0.0000000000000000e+00  7.2544209898030440e-02 -2.5528656272902472e-01 0.0000000000000000e+00  6.4922543722330209e-02 -2.5521542687389120e-01 0.0000000000000000e+00  4.4153851201480618e-02 -1.5952738101271044e-01 0.0000000000000000e+00  4.2470920413602953e-02 -1.5952495415956144e-01 0.0000000000000000e+00  2.8349453107048766e-02 -9.4549337061359900e-02 0.0000000000000000e+00  2.4812070613502921e-02 -9.4534813479881324e-02 0.0000000000000000e+00  6.2962119920115869e-03 -4.9579656237867626e-03 0.0000000000000000e+00  0.0000000000000000e+00 0.0000000000000000e+00 0.0000000000000000e+00  -3.4675537263277462e-03 -2.4245820093160432e-02 0.0000000000000000e+00  -1.0992958872806545e-03 -2.4483427598222144e-02 0.0000000000000000e+00  -8.6095249879460892e-04 -2.7413300819427298e-02 0.0000000000000000e+00  3.7943905225455293e-03 -6.1783978896929520e-02 0.0000000000000000e+00  6.8986888091168491e-03 -6.3908220792589704e-02 0.0000000000000000e+00  1.3141625688722130e-02 -7.2393715031942960e-02 0.0000000000000000e+00  2.0024111744903926e-03 -3.3204116483247760e-02 0.0000000000000000e+00  4.4651621196972659e-03 -4.3645777332754015e-02 0.0000000000000000e+00  1.4190946902174489e-02 -9.0416581637089127e-02 0.0000000000000000e+00  2.9454605899234380e-02 -1.1635436333563823e-01 0.0000000000000000e+00  2.2111043072237647e-02 -1.0031158403484453e-01 0.0000000000000000e+00  5.5882424384166601e-02 -1.3877419036145783e-01 0.0000000000000000e+00  2.9235649373927593e-02 -1.0314577629050962e-01 0.0000000000000000e+00  3.0125929633546329e-02 -1.1733250328694000e-01 0.0000000000000000e+00  5.6420897506741591e-02 -1.4168235895920386e-01 0.0000000000000000e+00  6.3447844582409471e-02 -1.6124185638964511e-01 0.0000000000000000e+00  9.8902243939882492e-02 -1.7733812322557302e-01 0.0000000000000000e+00  1.0359473161393999e-01 -1.7817442932018782e-01 0.0000000000000000e+00  9.8401968177319277e-02 -2.0251179612890841e-01 0.0000000000000000e+00  4.1629504655003091e-02 -1.4566532526981432e-01 0.0000000000000000e+00  5.6919053323666341e-02 -2.0118923140659001e-01 0.0000000000000000e+00  3.8199287767145700e-02 -1.8893919770892281e-01 0.0000000000000000e+00  8.3742305726219018e-02 -2.6343618347601455e-01 0.0000000000000000e+00  1.0272936418547987e-01 -2.5123496931514416e-01 0.0000000000000000e+00  6.9057268318901160e-02 -3.4325658909270834e-01 0.0000000000000000e+00  -3.7196122669142040e-03 -2.6979819993426849e-03 0.0000000000000000e+00  -3.8023399182001523e-03 -2.7210786282827817e-03 0.0000000000000000e+00  -3.8222687389966098e-03 -2.7401942243195348e-03 0.0000000000000000e+00  -3.7727401104060863e-03 -2.7383877653057009e-03 0.0000000000000000e+00  -3.6572849825530470e-03 -2.7040692146024460e-03 0.0000000000000000e+00  -3.4823675382345356e-03 -2.6320618709597576e-03 0.0000000000000000e+00  -3.2537000701247597e-03 -2.5206502479756896e-03 0.0000000000000000e+00  -2.9755821100215223e-03 -2.3685994700519131e-03 0.0000000000000000e+00  -2.6501123375823432e-03 -2.1744260018287400e-03 0.0000000000000000e+00  -2.2771020102008354e-03 -1.9346313257673840e-03 0.0000000000000000e+00  -1.8535609765911367e-03 -1.6421159552213781e-03 0.0000000000000000e+00  -1.3721103476692297e-03 -1.2814078464538773e-03 0.0000000000000000e+00  -8.0247271267320814e-04 -8.1563814809836716e-04 0.0000000000000000e+00  -3.5932493232153613e-03 -2.8057409353091731e-03 0.0000000000000000e+00  -3.5422107542493939e-03 -2.9619754729786922e-03 0.0000000000000000e+00  -3.4681487620720672e-03 -3.2217504986653957e-03 0.0000000000000000e+00  -3.3990420915752362e-03 -3.6217152659052936e-03 0.0000000000000000e+00  -3.3495712671546087e-03 -4.1793071513552358e-03 0.0000000000000000e+00  -3.3378179180591255e-03 -4.9069862755210429e-03 0.0000000000000000e+00  -3.3770466925743415e-03 -5.8112786742425884e-03 0.0000000000000000e+00  -3.4748852867676873e-03 -6.8995304889174483e-03 0.0000000000000000e+00  -3.6383612223210137e-03 -8.1802916340985680e-03 0.0000000000000000e+00  -3.8670770873999575e-03 -9.6672588969594492e-03 0.0000000000000000e+00  -4.1574260869933922e-03 -1.1380664913770544e-02 0.0000000000000000e+00  -4.5006815762092768e-03 -1.3342980951320039e-02 0.0000000000000000e+00  -4.8859119764417657e-03 -1.5578629678854296e-02 0.0000000000000000e+00  -5.3034039426375522e-03 -1.8085990393016071e-02 0.0000000000000000e+00  -5.7387965012471662e-03 -2.0808298018827779e-02 0.0000000000000000e+00  -6.5218090241542350e-03 -2.6462346084725630e-02 0.0000000000000000e+00  -6.7803325268437119e-03 -2.9103766955958579e-02 0.0000000000000000e+00  -6.9266739478834839e-03 -3.1508422941791542e-02 0.0000000000000000e+00  -6.9897523165751941e-03 -3.3650160194310878e-02 0.0000000000000000e+00  -7.0315590676897476e-03 -3.5535790085422667e-02 0.0000000000000000e+00  -7.1101078254445105e-03 -3.7168648956507927e-02 0.0000000000000000e+00  -7.2604260657321111e-03 -3.8535403123243994e-02 0.0000000000000000e+00  -7.4808536133428296e-03 -3.9614496616131555e-02 0.0000000000000000e+00  -7.7447954813328924e-03 -4.0391480889817595e-02 0.0000000000000000e+00  -8.0035112842563524e-03 -4.0875107685448921e-02 0.0000000000000000e+00  -8.2102931536095648e-03 -4.1108814973709829e-02 0.0000000000000000e+00  -8.3387315060263478e-03 -4.1167195217086068e-02 0.0000000000000000e+00  -8.3959837159122749e-03 -4.1132369243242137e-02 0.0000000000000000e+00  -8.4079186127791056e-03 -4.1071043127851981e-02 0.0000000000000000e+00  -8.4040111527395739e-03 -4.1010486099941901e-02 0.0000000000000000e+00  -8.2754189469069189e-03 -4.0954141787052499e-02 0.0000000000000000e+00  -8.3164788959046287e-03 -4.0954420693157856e-02 0.0000000000000000e+00  -8.3581931291690417e-03 -4.0954695356147187e-02 0.0000000000000000e+00  -8.2332502019670465e-03 -4.1003836948858591e-02 0.0000000000000000e+00  -8.2216813062904216e-03 -4.1047748700727055e-02 0.0000000000000000e+00  -8.1839628258303411e-03 -4.1088377666599618e-02 0.0000000000000000e+00  -8.0920255330770782e-03 -4.1154137328458927e-02 0.0000000000000000e+00  -7.9168996278549571e-03 -4.1306373934328275e-02 0.0000000000000000e+00  -7.6587403572197588e-03 -4.1631290791954594e-02 0.0000000000000000e+00  -7.3376295264473302e-03 -4.2195783817216843e-02 0.0000000000000000e+00  -7.0030603230841915e-03 -4.3044462744662268e-02 0.0000000000000000e+00  -6.6992360696572712e-03 -4.4181877572339039e-02 0.0000000000000000e+00  -6.4517889344511969e-03 -4.5590648999269678e-02 0.0000000000000000e+00  -6.2545933331776436e-03 -4.7247331022402715e-02 0.0000000000000000e+00  -6.0621634779461303e-03 -4.9132205969391073e-02 0.0000000000000000e+00  -5.8042066937849766e-03 -5.1249632070932506e-02 0.0000000000000000e+00  -5.3984799875340219e-03 -5.3595797291026988e-02 0.0000000000000000e+00  -4.7932996385008173e-03 -5.6154582220224847e-02 0.0000000000000000e+00  -3.0240617676334015e-03 -6.1546317252232849e-02 0.0000000000000000e+00  -1.9836078611807141e-03 -6.4105344591203484e-02 0.0000000000000000e+00  -9.3652068411716975e-04 -6.6425561114724821e-02 0.0000000000000000e+00  4.9404285460148131e-05 -6.8446656197424072e-02 0.0000000000000000e+00  9.1474652385502102e-04 -7.0159905402430028e-02 0.0000000000000000e+00  1.6133131359118500e-03 -7.1551018875058048e-02 0.0000000000000000e+00  2.1291742592405407e-03 -7.2598519562569547e-02 0.0000000000000000e+00  2.4823650022787096e-03 -7.3280226686172720e-02 0.0000000000000000e+00  2.7133514786139394e-03 -7.3585104490998657e-02 0.0000000000000000e+00  2.8815108446463233e-03 -7.3528934029499365e-02 0.0000000000000000e+00  3.0393093834258605e-03 -7.3165441452966287e-02 0.0000000000000000e+00  3.2146942422188805e-03 -7.2580967843364375e-02 0.0000000000000000e+00  3.3988487704693618e-03 -7.1869222364645741e-02 0.0000000000000000e+00  3.5631367434798790e-03 -7.1107714024004232e-02 0.0000000000000000e+00  3.6750045175678665e-03 -7.0332463919719909e-02 0.0000000000000000e+00  5.5405722056508407e-03 -6.9559780367311710e-02 0.0000000000000000e+00  4.9330960180002026e-03 -6.9558298736402416e-02 0.0000000000000000e+00  4.3250179705768823e-03 -6.9556809136112827e-02 0.0000000000000000e+00  6.1822704055812458e-03 -7.0333002746410092e-02 0.0000000000000000e+00  6.2980120970547431e-03 -7.1091789151992366e-02 0.0000000000000000e+00  6.5107471958573129e-03 -7.1834370933596042e-02 0.0000000000000000e+00  6.8473932118931127e-03 -7.2584686904578657e-02 0.0000000000000000e+00  7.3340317666339659e-03 -7.3400603820446650e-02 0.0000000000000000e+00  7.9649574687073021e-03 -7.4363840446619228e-02 0.0000000000000000e+00  8.7141944380477298e-03 -7.5533954441085446e-02 0.0000000000000000e+00  9.5281430514468930e-03 -7.6946122488214932e-02 0.0000000000000000e+00  1.0362603911172772e-02 -7.8596159385910525e-02 0.0000000000000000e+00  1.1195376539642612e-02 -8.0461561184880293e-02 0.0000000000000000e+00  1.2037421569281238e-02 -8.2518727268270017e-02 0.0000000000000000e+00  1.2935834292529117e-02 -8.4754672158251124e-02 0.0000000000000000e+00  1.3956975567606899e-02 -8.7182282670093564e-02 0.0000000000000000e+00  1.5164643586188166e-02 -8.9811208812742432e-02 0.0000000000000000e+00  1.6579230372043726e-02 -9.2636654314551911e-02 0.0000000000000000e+00  1.9786420698905859e-02 -9.8537594021521485e-02 0.0000000000000000e+00  2.1371126315440084e-02 -1.0131602814986601e-01 0.0000000000000000e+00  2.2838233174841328e-02 -1.0382486559578377e-01 0.0000000000000000e+00  2.4141731535139960e-02 -1.0599717444720491e-01 0.0000000000000000e+00  2.5240465958947897e-02 -1.0781535618554419e-01 0.0000000000000000e+00  2.6111038423058515e-02 -1.0927535778033447e-01 0.0000000000000000e+00  2.6753840647531855e-02 -1.1035333479953324e-01 0.0000000000000000e+00  2.7200354653769247e-02 -1.1102835365106484e-01 0.0000000000000000e+00  2.7506426518041999e-02 -1.1129219822287617e-01 0.0000000000000000e+00  2.7736556467404260e-02 -1.1116601931805056e-01 0.0000000000000000e+00  2.7947056873299299e-02 -1.1070842537570516e-01 0.0000000000000000e+00  2.8170484618527485e-02 -1.1001578267229890e-01 0.0000000000000000e+00  2.8394279582496802e-02 -1.0918644121184298e-01 0.0000000000000000e+00  2.8588938677369335e-02 -1.0830156895328669e-01 0.0000000000000000e+00  2.8720042404105500e-02 -1.0740097657974086e-01 0.0000000000000000e+00  3.0890082217124984e-02 -1.0650381417558497e-01 0.0000000000000000e+00  3.0183491193300740e-02 -1.0650170413320888e-01 0.0000000000000000e+00  2.9476274169097406e-02 -1.0649958206351655e-01 0.0000000000000000e+00  3.1636219755701855e-02 -1.0740390636381777e-01 0.0000000000000000e+00  3.1769908065050416e-02 -1.0828759473713623e-01 0.0000000000000000e+00  3.2013615240422726e-02 -1.0915269739764523e-01 0.0000000000000000e+00  3.2395138198024052e-02 -1.1002332550170416e-01 0.0000000000000000e+00  3.2941288589435368e-02 -1.1095825068472102e-01 0.0000000000000000e+00  3.3646115112861107e-02 -1.1204084780103017e-01 0.0000000000000000e+00  3.4481571603535231e-02 -1.1333091049851057e-01 0.0000000000000000e+00  3.5393987940095614e-02 -1.1485931729784220e-01 0.0000000000000000e+00  3.6344350955661235e-02 -1.1661721845217719e-01 0.0000000000000000e+00  3.7318018565289095e-02 -1.1857916770429489e-01 0.0000000000000000e+00  3.8340698996331801e-02 -1.2071657966230222e-01 0.0000000000000000e+00  3.9478501875749063e-02 -1.2301754880994506e-01 0.0000000000000000e+00  4.0826689091280337e-02 -1.2548802148164881e-01 0.0000000000000000e+00  4.2477948688680503e-02 -1.2814281497907498e-01 0.0000000000000000e+00  4.4479246658361053e-02 -1.3097694620340883e-01 0.0000000000000000e+00  4.9266155425542163e-02 -1.3686507291623637e-01 0.0000000000000000e+00  5.1752388258477583e-02 -1.3961042765646484e-01 0.0000000000000000e+00  5.4120440421728491e-02 -1.4204782277462641e-01 0.0000000000000000e+00  5.6283438525022843e-02 -1.4409210558602423e-01 0.0000000000000000e+00  5.8176136154397803e-02 -1.4571048476715229e-01 0.0000000000000000e+00  5.9766026301111316e-02 -1.4688823562107622e-01 0.0000000000000000e+00  6.1054167548978480e-02 -1.4759228025781174e-01 0.0000000000000000e+00  6.2078987623164952e-02 -1.4779967976677094e-01 0.0000000000000000e+00  6.2904183284589313e-02 -1.4750710744030740e-01 0.0000000000000000e+00  6.3598791627544185e-02 -1.4674733656843084e-01 0.0000000000000000e+00  6.4218721608783447e-02 -1.4559448945596423e-01 0.0000000000000000e+00  6.4791418444159990e-02 -1.4416098770590519e-01 0.0000000000000000e+00  6.5296851128912564e-02 -1.4255815975155978e-01 0.0000000000000000e+00  6.5698987092260408e-02 -1.4087701060092475e-01 0.0000000000000000e+00  6.5959190865835168e-02 -1.3916480118482025e-01 0.0000000000000000e+00  7.0109205160437227e-02 -1.3746775543267095e-01 0.0000000000000000e+00  6.8759018895784785e-02 -1.3745894754964758e-01 0.0000000000000000e+00  6.7408058063306409e-02 -1.3745012147075630e-01 0.0000000000000000e+00  7.1530677388485370e-02 -1.3919488729534987e-01 0.0000000000000000e+00  7.1776372936283292e-02 -1.4089157883262926e-01 0.0000000000000000e+00  7.2211745537529931e-02 -1.4255390263136652e-01 0.0000000000000000e+00  7.2864234518328144e-02 -1.4419829002684020e-01 0.0000000000000000e+00  7.3760328378633042e-02 -1.4587725907922586e-01 0.0000000000000000e+00  7.4893854925810618e-02 -1.4766882806184939e-01 0.0000000000000000e+00  7.6237385777640873e-02 -1.4962705658858527e-01 0.0000000000000000e+00  7.7741086301065146e-02 -1.5177684569181746e-01 0.0000000000000000e+00  7.9374969053973232e-02 -1.5410497810114776e-01 0.0000000000000000e+00  8.1139023822115575e-02 -1.5658668742568982e-01 0.0000000000000000e+00  8.3076253759779381e-02 -1.5920341129093699e-01 0.0000000000000000e+00  8.5266680008034515e-02 -1.6196344681185690e-01 0.0000000000000000e+00  8.7801136867302954e-02 -1.6490947401750394e-01 0.0000000000000000e+00  9.0725829030245855e-02 -1.6810891851046464e-01 0.0000000000000000e+00  9.3979642920095599e-02 -1.7160828917387491e-01 0.0000000000000000e+00  1.0045810220017651e-01 -1.7928334940998947e-01 0.0000000000000000e+00  1.0309748099092093e-01 -1.8308332191532017e-01 0.0000000000000000e+00  1.0517057715882284e-01 -1.8661995864032327e-01 0.0000000000000000e+00  1.0673645448138609e-01 -1.8976982988643606e-01 0.0000000000000000e+00  1.0791505055870429e-01 -1.9252092146928426e-01 0.0000000000000000e+00  1.0881042544289657e-01 -1.9492231257974812e-01 0.0000000000000000e+00  1.0949524544588887e-01 -1.9703007591226948e-01 0.0000000000000000e+00  1.1001356210251302e-01 -1.9890073594409555e-01 0.0000000000000000e+00  1.1038894931991355e-01 -2.0057787032109858e-01 0.0000000000000000e+00  1.1063793852390461e-01 -2.0208795126974785e-01 0.0000000000000000e+00  1.1077096072908173e-01 -2.0344459972060264e-01 0.0000000000000000e+00  1.1080048623350099e-01 -2.0464489388348747e-01 0.0000000000000000e+00  1.1074897781391418e-01 -2.0567945690763004e-01 0.0000000000000000e+00  1.1064276944536387e-01 -2.0653641166911066e-01 0.0000000000000000e+00  1.1053957766217105e-01 -2.0722210835375821e-01 0.0000000000000000e+00  1.0628796949818926e-01 -2.1272155694633635e-01 0.0000000000000000e+00  1.0680589438774100e-01 -2.1200475471254290e-01 0.0000000000000000e+00  1.0725386655397989e-01 -2.1129134533285218e-01 0.0000000000000000e+00  1.0762364347215560e-01 -2.1060421801026896e-01 0.0000000000000000e+00  1.0791963137395295e-01 -2.0996454575521506e-01 0.0000000000000000e+00  1.0815431313432945e-01 -2.0938867692524119e-01 0.0000000000000000e+00  1.0834532855047810e-01 -2.0888980727869547e-01 0.0000000000000000e+00  1.0851411395526865e-01 -2.0847833375479399e-01 0.0000000000000000e+00  1.0868541552489587e-01 -2.0816171716405876e-01 0.0000000000000000e+00  1.0888656885892320e-01 -2.0794333517879363e-01 0.0000000000000000e+00  1.0914829107089169e-01 -2.0782157820187805e-01 0.0000000000000000e+00  1.0950042826097743e-01 -2.0778099567133040e-01 0.0000000000000000e+00  1.0996079863320539e-01 -2.0779257461408784e-01 0.0000000000000000e+00  1.9740265910554694e-01 -4.6811574923615323e-01 0.0000000000000000e+00  1.9718051768884864e-01 -4.6169776742921353e-01 0.0000000000000000e+00  1.9693542527774863e-01 -4.5524881154167512e-01 0.0000000000000000e+00  1.9664976077929894e-01 -4.4872705802607915e-01 0.0000000000000000e+00  1.9630085580721332e-01 -4.4211625722710984e-01 0.0000000000000000e+00  1.9587252645247361e-01 -4.3541740322502009e-01 0.0000000000000000e+00  1.9535459004848943e-01 -4.2864030744302178e-01 0.0000000000000000e+00  1.9474074768931646e-01 -4.2180124513879214e-01 0.0000000000000000e+00  1.9403154141279938e-01 -4.1491969116794292e-01 0.0000000000000000e+00  1.9323090908138246e-01 -4.0801603908459200e-01 0.0000000000000000e+00  1.9234600036396335e-01 -4.0111005805347694e-01 0.0000000000000000e+00  1.9138543520197340e-01 -3.9422096488798847e-01 0.0000000000000000e+00  1.9035875620266313e-01 -3.8736670115615213e-01 0.0000000000000000e+00  1.8927498345482632e-01 -3.8056395433842505e-01 0.0000000000000000e+00  1.8814166976801536e-01 -3.7382876258405645e-01 0.0000000000000000e+00  1.8696442890961026e-01 -3.6717757008306662e-01 0.0000000000000000e+00  1.8574688375966594e-01 -3.6062728260942950e-01 0.0000000000000000e+00  1.8448989321798651e-01 -3.5419821852634481e-01 0.0000000000000000e+00  1.8319243472388086e-01 -3.4791323208055192e-01 0.0000000000000000e+00  1.8185168210904629e-01 -3.4180054483778000e-01 0.0000000000000000e+00  1.8046357785696635e-01 -3.3589630426721356e-01 0.0000000000000000e+00  1.7902325895061685e-01 -3.3025009419322698e-01 0.0000000000000000e+00  1.7752582978679501e-01 -3.2494593281031947e-01 0.0000000000000000e+00  1.7600383780707829e-01 -3.2014895267784027e-01 0.0000000000000000e+00  1.7451254773924252e-01 -3.1575783039765637e-01 0.0000000000000000e+00  1.7305312135737935e-01 -3.1166017929524698e-01 0.0000000000000000e+00  1.7162170317266526e-01 -3.0780921943514961e-01 0.0000000000000000e+00  1.7021745434487578e-01 -3.0417174369853023e-01 0.0000000000000000e+00  1.6883972041110251e-01 -3.0072271938252898e-01 0.0000000000000000e+00  1.6748997996258999e-01 -2.9744185868211326e-01 0.0000000000000000e+00  1.6617030902573643e-01 -2.9431124944037645e-01 0.0000000000000000e+00  1.6488406501618777e-01 -2.9131453713532052e-01 0.0000000000000000e+00  1.6363524886613220e-01 -2.8843603326900452e-01 0.0000000000000000e+00  1.6242809748454204e-01 -2.8566086307614258e-01 0.0000000000000000e+00  1.6126716927635185e-01 -2.8297379826410263e-01 0.0000000000000000e+00  1.6015620735934458e-01 -2.8036002176883879e-01 0.0000000000000000e+00  1.5909851904140018e-01 -2.7780523490355935e-01 0.0000000000000000e+00  1.58095500456