<?xml version="1.0"?>
<VTKFile type="UnstructuredGrid"  version="0.1"  >
<UnstructuredGrid>
<Piece  NumberOfPoints="12853" NumberOfCells="23493">
<Points>
<DataArray  type="Float64"  NumberOfComponents="3"  format="ascii">-3.187178156719634e-14 1.7 0  0 0 0  1.3 3 0  -3.185690647650846e-14 4.300000000000001 0  -3.187178156719634e-14 4.699999999999999 0  1.3 6 0  -3.185690647650846e-14 7.300000000000001 0  -3.187178156719634e-14 7.699999999999999 0  1.3 9 0  -3.185690647650846e-14 10.3 0  -3.187178156719634e-14 10.7 0  1.3 12 0  -3.185690647650846e-14 13.3 0  -3.187178156719634e-14 13.7 0  1.3 15 0  -3.185690647650846e-14 16.3 0  0 18 0  18 18 0  17.99999999999997 16.3 0  17.99999999999997 13.7 0  17.99999999999997 13.3 0  17.99999999999997 10.7 0  17.99999999999997 10.3 0  17.99999999999997 7.7 0  17.99999999999997 7.3 0  17.99999999999997 4.7 0  17.99999999999997 4.3 0  17.99999999999997 1.7 0  18 0 0  4.3 3 0  7.3 3 0  10.3 3 0  4.3 6 0  7.3 6 0  10.3 6 0  13.3 3 0  16.3 3 0  13.3 6 0  16.3 6 0  4.3 9 0  4.3 12 0  7.3 9 0  10.3 9 0  7.3 12 0  10.3 12 0  4.3 15 0  7.3 15 0  10.3 15 0  13.3 9 0  13.3 12 0  16.3 9 0  16.3 12 0  13.3 15 0  16.3 15 0  0 1.578571428571429 0  0 1.457142857142856 0  0 1.335714285714285 0  0 1.214285714285712 0  0 1.092857142857142 0  0 0.9714285714285715 0  0 0.8499999999999979 0  0 0.7285714285714278 0  0 0.6071428571428577 0  0 0.485714285714284 0  0 0.3642857142857139 0  0 0.2428571428571438 0  0 0.1214285714285701 0  0.1274222824284281 1.706259855326144 0  0.2536174186209668 1.7249791354758 0  0.3773700804308007 1.755977563548128 0  0.497488462074617 1.798956607735327 0  0.6128157578737968 1.853502356347138 0  0.7222413029254824 1.919089504006691 0  0.8247112694127393 1.995086410628442 0  0.9192388155425116 2.080761184457488 0  1.004913589371558 2.17528873058726 0  1.080910495993309 2.277758697074517 0  1.146497643652861 2.387184242126203 0  1.201043392264673 2.502511537925383 0  1.244022436451871 2.622629919569199 0  1.275020864524199 2.746382581379033 0  1.293740144673856 2.872577717571571 0  1.293740144673856 3.127422282428428 0  1.2750208645242 3.253617418620966 0  1.244022436451872 3.3773700804308 0  1.201043392264673 3.497488462074616 0  1.146497643652862 3.612815757873796 0  1.08091049599331 3.722241302925481 0  1.00491358937156 3.824711269412738 0  0.9192388155425134 3.91923881554251 0  0.8247112694127412 4.004913589371556 0  0.7222413029254846 4.080910495993308 0  0.6128157578737984 4.146497643652861 0  0.4974884620746181 4.201043392264673 0  0.3773700804308024 4.244022436451871 0  0.2536174186209674 4.275020864524199 0  0.127422282428429 4.293740144673856 0  0 4.6 0  0 4.5 0  0 4.4 0  0.1274222824284281 4.706259855326143 0  0.2536174186209668 4.724979135475801 0  0.3773700804308007 4.755977563548129 0  0.497488462074617 4.798956607735327 0  0.6128157578737968 4.853502356347138 0  0.7222413029254824 4.919089504006691 0  0.8247112694127393 4.995086410628442 0  0.9192388155425116 5.080761184457488 0  1.004913589371558 5.17528873058726 0  1.080910495993309 5.277758697074518 0  1.146497643652861 5.387184242126203 0  1.201043392264673 5.502511537925383 0  1.244022436451871 5.622629919569198 0  1.275020864524199 5.746382581379033 0  1.293740144673856 5.872577717571572 0  1.293740144673856 6.127422282428428 0  1.2750208645242 6.253617418620967 0  1.244022436451872 6.377370080430801 0  1.201043392264673 6.497488462074616 0  1.146497643652862 6.612815757873795 0  1.08091049599331 6.722241302925481 0  1.00491358937156 6.824711269412737 0  0.9192388155425134 6.91923881554251 0  0.8247112694127412 7.004913589371556 0  0.7222413029254846 7.080910495993308 0  0.6128157578737984 7.146497643652861 0  0.4974884620746181 7.201043392264673 0  0.3773700804308024 7.244022436451871 0  0.2536174186209674 7.275020864524199 0  0.127422282428429 7.293740144673856 0  0 7.6 0  0 7.5 0  0 7.4 0  0.1274222824284281 7.706259855326143 0  0.2536174186209668 7.724979135475801 0  0.3773700804308007 7.755977563548129 0  0.497488462074617 7.798956607735327 0  0.6128157578737968 7.853502356347138 0  0.7222413029254824 7.919089504006691 0  0.8247112694127393 7.995086410628442 0  0.9192388155425116 8.080761184457488 0  1.004913589371558 8.17528873058726 0  1.080910495993309 8.277758697074518 0  1.146497643652861 8.387184242126203 0  1.201043392264673 8.502511537925383 0  1.244022436451871 8.622629919569199 0  1.275020864524199 8.746382581379033 0  1.293740144673856 8.872577717571572 0  1.293740144673856 9.127422282428428 0  1.2750208645242 9.253617418620966 0  1.244022436451872 9.377370080430801 0  1.201043392264673 9.497488462074616 0  1.146497643652862 9.612815757873795 0  1.08091049599331 9.722241302925481 0  1.00491358937156 9.824711269412738 0  0.9192388155425134 9.91923881554251 0  0.8247112694127412 10.00491358937156 0  0.7222413029254846 10.08091049599331 0  0.6128157578737984 10.14649764365286 0  0.4974884620746181 10.20104339226467 0  0.3773700804308024 10.24402243645187 0  0.2536174186209674 10.2750208645242 0  0.127422282428429 10.29374014467386 0  0 10.6 0  0 10.5 0  0 10.4 0  0.1274222824284281 10.70625985532614 0  0.2536174186209668 10.7249791354758 0  0.3773700804308007 10.75597756354813 0  0.497488462074617 10.79895660773533 0  0.6128157578737968 10.85350235634714 0  0.7222413029254824 10.91908950400669 0  0.8247112694127393 10.99508641062844 0  0.9192388155425116 11.08076118445749 0  1.004913589371558 11.17528873058726 0  1.080910495993309 11.27775869707452 0  1.146497643652861 11.3871842421262 0  1.201043392264673 11.50251153792538 0  1.244022436451871 11.6226299195692 0  1.275020864524199 11.74638258137903 0  1.293740144673856 11.87257771757157 0  1.293740144673856 12.12742228242843 0  1.2750208645242 12.25361741862097 0  1.244022436451872 12.3773700804308 0  1.201043392264673 12.49748846207462 0  1.146497643652862 12.6128157578738 0  1.08091049599331 12.72224130292548 0  1.00491358937156 12.82471126941274 0  0.9192388155425134 12.91923881554251 0  0.8247112694127412 13.00491358937156 0  0.7222413029254846 13.08091049599331 0  0.6128157578737984 13.14649764365286 0  0.4974884620746181 13.20104339226467 0  0.3773700804308024 13.24402243645187 0  0.2536174186209674 13.2750208645242 0  0.127422282428429 13.29374014467386 0  0 13.6 0  0 13.5 0  0 13.4 0  0.1274222824284281 13.70625985532614 0  0.2536174186209668 13.7249791354758 0  0.3773700804308007 13.75597756354813 0  0.497488462074617 13.79895660773533 0  0.6128157578737968 13.85350235634714 0  0.7222413029254824 13.91908950400669 0  0.8247112694127393 13.99508641062844 0  0.9192388155425116 14.08076118445749 0  1.004913589371558 14.17528873058726 0  1.080910495993309 14.27775869707452 0  1.146497643652861 14.3871842421262 0  1.201043392264673 14.50251153792538 0  1.244022436451871 14.6226299195692 0  1.275020864524199 14.74638258137903 0  1.293740144673856 14.87257771757157 0  1.293740144673856 15.12742228242843 0  1.2750208645242 15.25361741862097 0  1.244022436451872 15.3773700804308 0  1.201043392264673 15.49748846207462 0  1.146497643652862 15.6128157578738 0  1.08091049599331 15.72224130292548 0  1.00491358937156 15.82471126941274 0  0.9192388155425134 15.91923881554251 0  0.8247112694127412 16.00491358937156 0  0.7222413029254846 16.08091049599331 0  0.6128157578737984 16.14649764365286 0  0.4974884620746181 16.20104339226467 0  0.3773700804308024 16.24402243645187 0  0.2536174186209674 16.2750208645242 0  0.127422282428429 16.29374014467385 0  0 17.87857142857143 0  0 17.75714285714286 0  0 17.63571428571429 0  0 17.51428571428571 0  0 17.39285714285714 0  0 17.27142857142857 0  0 17.15 0  0 17.02857142857143 0  0 16.90714285714286 0  0 16.78571428571428 0  0 16.66428571428571 0  0 16.54285714285714 0  0 16.42142857142857 0  17.8705035971223 18 0  17.7410071942446 18 0  17.61151079136691 18 0  17.48201438848921 18 0  17.35251798561151 18 0  17.22302158273381 18 0  17.09352517985612 18 0  16.96402877697842 18 0  16.83453237410072 18 0  16.70503597122302 18 0  16.57553956834532 18 0  16.44604316546762 18 0  16.31654676258993 18 0  16.18705035971223 18 0  16.05755395683453 18 0  15.92805755395683 18 0  15.79856115107913 18 0  15.66906474820144 18 0  15.53956834532374 18 0  15.41007194244604 18 0  15.28057553956834 18 0  15.15107913669064 18 0  15.02158273381295 18 0  14.89208633093525 18 0  14.76258992805755 18 0  14.63309352517985 18 0  14.50359712230215 18 0  14.37410071942446 18 0  14.24460431654676 18 0  14.11510791366906 18 0  13.98561151079136 18 0  13.85611510791366 18 0  13.72661870503597 18 0  13.59712230215827 18 0  13.46762589928057 18 0  13.33812949640287 18 0  13.20863309352517 18 0  13.07913669064748 18 0  12.94964028776977 18 0  12.82014388489208 18 0  12.69064748201438 18 0  12.56115107913668 18 0  12.43165467625898 18 0  12.30215827338128 18 0  12.17266187050359 18 0  12.04316546762589 18 0  11.91366906474819 18 0  11.78417266187049 18 0  11.65467625899279 18 0  11.52517985611509 18 0  11.3956834532374 18 0  11.2661870503597 18 0  11.136690647482 18 0  11.0071942446043 18 0  10.8776978417266 18 0  10.7482014388489 18 0  10.6187050359712 18 0  10.48920863309351 18 0  10.35971223021581 18 0  10.23021582733811 18 0  10.10071942446041 18 0  9.971223021582714 18 0  9.841726618705016 18 0  9.712230215827317 18 0  9.582733812949618 18 0  9.453237410071921 18 0  9.323741007194224 18 0  9.194244604316525 18 0  9.064748201438828 18 0  8.935251798561131 18 0  8.805755395683434 18 0  8.676258992805735 18 0  8.546762589928038 18 0  8.417266187050341 18 0  8.287769784172642 18 0  8.158273381294947 18 0  8.028776978417248 18 0  7.899280575539549 18 0  7.769784172661854 18 0  7.640287769784155 18 0  7.510791366906458 18 0  7.381294964028761 18 0  7.251798561151062 18 0  7.122302158273365 18 0  6.992805755395668 18 0  6.86330935251797 18 0  6.733812949640273 18 0  6.604316546762576 18 0  6.474820143884878 18 0  6.34532374100718 18 0  6.215827338129483 18 0  6.086330935251786 18 0  5.956834532374087 18 0  5.827338129496392 18 0  5.697
[...]
<PointData  Vectors="f_21"> 
<DataArray  type="Float64"  Name="f_21"  NumberOfComponents="3" format="ascii">-2.8622587917873131e-04 -2.1419522167657071e-04 0.0000000000000000e+00  0.0000000000000000e+00 0.0000000000000000e+00 0.0000000000000000e+00  -5.2466768662054279e-04 -1.8835140994833059e-03 0.0000000000000000e+00  -7.9203829977195401e-04 -3.3332546883585753e-03 0.0000000000000000e+00  -8.0307792296291391e-04 -3.3332174242542757e-03 0.0000000000000000e+00  -5.9991933552430807e-04 -4.6927595310602976e-03 0.0000000000000000e+00  -2.5805399696932969e-04 -5.7705960646230268e-03 0.0000000000000000e+00  -1.4000271593201855e-04 -5.7705616174167692e-03 0.0000000000000000e+00  4.9782699132189180e-04 -7.5904716931092051e-03 0.0000000000000000e+00  1.0558893516449416e-03 -8.6038257091744178e-03 0.0000000000000000e+00  1.2161926937932822e-03 -8.6038046464641822e-03 0.0000000000000000e+00  2.1032811465821958e-03 -1.0572857872364158e-02 0.0000000000000000e+00  3.1309573161217253e-03 -1.1204997650998307e-02 0.0000000000000000e+00  3.4272061080108805e-03 -1.1205066864147507e-02 0.0000000000000000e+00  4.9354593879099122e-03 -1.3718002458078686e-02 0.0000000000000000e+00  5.7378310357524154e-03 -1.6161487024889384e-02 0.0000000000000000e+00  5.2960639174246329e-03 -1.6582462942149937e-02 0.0000000000000000e+00  1.1964796247442207e-02 -3.4068382268028025e-02 0.0000000000000000e+00  6.4147142940384821e-03 -3.3635393827500165e-02 0.0000000000000000e+00  5.2249111587261568e-03 -2.2547233722439636e-02 0.0000000000000000e+00  5.1435540003160881e-03 -2.2547264599464809e-02 0.0000000000000000e+00  4.2110718081731155e-03 -1.7924557040455150e-02 0.0000000000000000e+00  3.8717438154674366e-03 -1.7924525022145567e-02 0.0000000000000000e+00  2.8203589780368306e-03 -1.1816584117370722e-02 0.0000000000000000e+00  2.6675978476096104e-03 -1.1816652994486771e-02 0.0000000000000000e+00  1.8558332807896017e-03 -6.6335032158694280e-03 0.0000000000000000e+00  1.6732398527787632e-03 -6.6335462221837052e-03 0.0000000000000000e+00  4.7079092816377583e-04 -3.6841407840993654e-04 0.0000000000000000e+00  0.0000000000000000e+00 0.0000000000000000e+00 0.0000000000000000e+00  -3.0952770190680913e-04 -1.8839215957233060e-03 0.0000000000000000e+00  -1.6271008724408378e-04 -1.9049111427863023e-03 0.0000000000000000e+00  -9.7258694860886396e-05 -2.1143792070361647e-03 0.0000000000000000e+00  -8.5763995065799234e-05 -4.8173189655988996e-03 0.0000000000000000e+00  2.1733650659324074e-04 -4.9581202664018354e-03 0.0000000000000000e+00  5.7611296096846446e-04 -5.5902038938515147e-03 0.0000000000000000e+00  5.8483127713547056e-05 -2.5391650630398797e-03 0.0000000000000000e+00  3.8101322137716229e-04 -3.2084754113637227e-03 0.0000000000000000e+00  8.8526464369020148e-04 -6.8439784108041031e-03 0.0000000000000000e+00  1.6832764471581892e-03 -8.5569484172530168e-03 0.0000000000000000e+00  8.8079914635288688e-04 -7.8054144571577319e-03 0.0000000000000000e+00  2.6601939906008587e-03 -1.0775060694878446e-02 0.0000000000000000e+00  1.3098554932246714e-03 -8.0014530795163297e-03 0.0000000000000000e+00  1.5566462837526716e-03 -9.0522348198228599e-03 0.0000000000000000e+00  2.8285626610281920e-03 -1.0969265330680669e-02 0.0000000000000000e+00  3.1813886117867049e-03 -1.2422640512795211e-02 0.0000000000000000e+00  5.1743696743251104e-03 -1.3724377685220423e-02 0.0000000000000000e+00  5.4438026402550150e-03 -1.3750179379492701e-02 0.0000000000000000e+00  5.1790590254478016e-03 -1.5610179671235371e-02 0.0000000000000000e+00  2.1179609124161885e-03 -1.1071258748802017e-02 0.0000000000000000e+00  3.1153090318415087e-03 -1.5265899983739241e-02 0.0000000000000000e+00  2.4852564078384335e-03 -1.3914645832896809e-02 0.0000000000000000e+00  4.3423287546003530e-03 -1.9424674387829827e-02 0.0000000000000000e+00  5.3675107682252818e-03 -1.9070782845241222e-02 0.0000000000000000e+00  3.8675672009191482e-03 -2.5330536944255522e-02 0.0000000000000000e+00  -2.9492833658560554e-04 -2.1469221894173665e-04 0.0000000000000000e+00  -3.0123814444308976e-04 -2.1650125281014418e-04 0.0000000000000000e+00  -3.0255667876565229e-04 -2.1794337766022263e-04 0.0000000000000000e+00  -2.9838906776342397e-04 -2.1767873094571074e-04 0.0000000000000000e+00  -2.8903904420508002e-04 -2.1480131997454955e-04 0.0000000000000000e+00  -2.7503295151149783e-04 -2.0891786972602184e-04 0.0000000000000000e+00  -2.5683069444331773e-04 -1.9990514005479890e-04 0.0000000000000000e+00  -2.3477547536308535e-04 -1.8767903113443236e-04 0.0000000000000000e+00  -2.0903336865170120e-04 -1.7213380539324752e-04 0.0000000000000000e+00  -1.7958682581537460e-04 -1.5300420149082390e-04 0.0000000000000000e+00  -1.4619388475227652e-04 -1.2974065452973682e-04 0.0000000000000000e+00  -1.0826109248543691e-04 -1.0113475301718268e-04 0.0000000000000000e+00  -6.3385037272305743e-05 -6.4300157154379846e-05 0.0000000000000000e+00  -2.8512595066990614e-04 -2.2303149233692245e-04 0.0000000000000000e+00  -2.8113561830485996e-04 -2.3527390624700431e-04 0.0000000000000000e+00  -2.7541060594883589e-04 -2.5576768428473137e-04 0.0000000000000000e+00  -2.7019362639309175e-04 -2.8738518513595970e-04 0.0000000000000000e+00  -2.6667033852359495e-04 -3.3148412731142139e-04 0.0000000000000000e+00  -2.6630022031651652e-04 -3.8903718411185522e-04 0.0000000000000000e+00  -2.7016723636886749e-04 -4.6056222094867318e-04 0.0000000000000000e+00  -2.7892670528890771e-04 -5.4666328282096312e-04 0.0000000000000000e+00  -2.9320087699118326e-04 -6.4806409699870470e-04 0.0000000000000000e+00  -3.1305649385862596e-04 -7.6592354791009940e-04 0.0000000000000000e+00  -3.3835176178353390e-04 -9.0195190363724447e-04 0.0000000000000000e+00  -3.6859643906214835e-04 -1.0580622575358611e-03 0.0000000000000000e+00  -4.0317776067992465e-04 -1.2363420464799049e-03 0.0000000000000000e+00  -4.4158371880042587e-04 -1.4367951900529979e-03 0.0000000000000000e+00  -4.8286702285872625e-04 -1.6549656529996238e-03 0.0000000000000000e+00  -5.6259967377843745e-04 -2.1091412988390058e-03 0.0000000000000000e+00  -5.9320828279558308e-04 -2.3214778639312288e-03 0.0000000000000000e+00  -6.1496725443572326e-04 -2.5147189365650408e-03 0.0000000000000000e+00  -6.2957864657554104e-04 -2.6868852234373515e-03 0.0000000000000000e+00  -6.4156075044523927e-04 -2.8387734333810018e-03 0.0000000000000000e+00  -6.5536323188762548e-04 -2.9709611364339469e-03 0.0000000000000000e+00  -6.7380890415982494e-04 -3.0826924364836705e-03 0.0000000000000000e+00  -6.9692988954807755e-04 -3.1724442195494285e-03 0.0000000000000000e+00  -7.2277418176986698e-04 -3.2391280321630283e-03 0.0000000000000000e+00  -7.4760772216335262e-04 -3.2833532631029831e-03 0.0000000000000000e+00  -7.6777267899363736e-04 -3.3083990295652297e-03 0.0000000000000000e+00  -7.8115249189102619e-04 -3.3200003849869291e-03 0.0000000000000000e+00  -7.8825579647885040e-04 -3.3245232980078851e-03 0.0000000000000000e+00  -7.9107078424374953e-04 -3.3271547004504495e-03 0.0000000000000000e+00  -7.9189482079781808e-04 -3.3299835535763934e-03 0.0000000000000000e+00  -8.0020546663139348e-04 -3.3332127795470835e-03 0.0000000000000000e+00  -7.9742007940401599e-04 -3.3332362909541842e-03 0.0000000000000000e+00  -7.9468505842572633e-04 -3.3332594928224034e-03 0.0000000000000000e+00  -8.0327896547871427e-04 -3.3294556743779474e-03 0.0000000000000000e+00  -8.0349044123830828e-04 -3.3253185982144036e-03 0.0000000000000000e+00  -8.0237578976638426e-04 -3.3210782937211384e-03 0.0000000000000000e+00  -7.9770842339769250e-04 -3.3190585629064425e-03 0.0000000000000000e+00  -7.8718738194232527e-04 -3.3241789264522015e-03 0.0000000000000000e+00  -7.7081195330818634e-04 -3.3433217697640071e-03 0.0000000000000000e+00  -7.5015751362487657e-04 -3.3818526836147133e-03 0.0000000000000000e+00  -7.2915523833898179e-04 -3.4434133526174584e-03 0.0000000000000000e+00  -7.1137920973422233e-04 -3.5285291656883201e-03 0.0000000000000000e+00  -6.9902895722035244e-04 -3.6360501480867265e-03 0.0000000000000000e+00  -6.9193822820863061e-04 -3.7644026162670621e-03 0.0000000000000000e+00  -6.8705828942680137e-04 -3.9123195754628363e-03 0.0000000000000000e+00  -6.7965873214965718e-04 -4.0804462277701002e-03 0.0000000000000000e+00  -6.6430348083838071e-04 -4.2684822137374180e-03 0.0000000000000000e+00  -6.3779203435397787e-04 -4.4749547862146495e-03 0.0000000000000000e+00  -5.5300795767909510e-04 -4.9112821828641278e-03 0.0000000000000000e+00  -5.0087231922680913e-04 -5.1184832926235001e-03 0.0000000000000000e+00  -4.4722832578685548e-04 -5.3069159585218458e-03 0.0000000000000000e+00  -3.9622697378084937e-04 -5.4725244467872785e-03 0.0000000000000000e+00  -3.5210858989174402e-04 -5.6151883255912260e-03 0.0000000000000000e+00  -3.1847774912436585e-04 -5.7343512257024302e-03 0.0000000000000000e+00  -2.9683323825471477e-04 -5.8286859282775487e-03 0.0000000000000000e+00  -2.8594409463957092e-04 -5.8965702429346848e-03 0.0000000000000000e+00  -2.8287334808068185e-04 -5.9370505492536540e-03 0.0000000000000000e+00  -2.8310316322400548e-04 -5.9510681475556113e-03 0.0000000000000000e+00  -2.8248502357983331e-04 -5.9424546412888829e-03 0.0000000000000000e+00  -2.7867818889485470e-04 -5.9176199588485559e-03 0.0000000000000000e+00  -2.7219359347773121e-04 -5.8836340243840456e-03 0.0000000000000000e+00  -2.6512288121419760e-04 -5.8463661602235276e-03 0.0000000000000000e+00  -2.5993459659999838e-04 -5.8084544408276532e-03 0.0000000000000000e+00  -1.6940387126330132e-04 -5.7705534601962616e-03 0.0000000000000000e+00  -1.9889383131126186e-04 -5.7705791388681076e-03 0.0000000000000000e+00  -2.2842886822306381e-04 -5.7706044709645455e-03 0.0000000000000000e+00  -1.3818715574207062e-04 -5.8079157648558760e-03 0.0000000000000000e+00  -1.3232906475528467e-04 -5.8444922009330937e-03 0.0000000000000000e+00  -1.2109145501616115e-04 -5.8802298870313874e-03 0.0000000000000000e+00  -1.0230713435235939e-04 -5.9172307998627957e-03 0.0000000000000000e+00  -7.3847636546431125e-05 -5.9602547488740894e-03 0.0000000000000000e+00  -3.6072539741819662e-05 -6.0159513335362224e-03 0.0000000000000000e+00  9.0470660751447588e-06 -6.0892492785424761e-03 0.0000000000000000e+00  5.7285570646796605e-05 -6.1832106958624950e-03 0.0000000000000000e+00  1.0502635549126558e-04 -6.2978158665637947e-03 0.0000000000000000e+00  1.5022841530528110e-04 -6.4315874431037411e-03 0.0000000000000000e+00  1.9328861191557876e-04 -6.5829054907250266e-03 0.0000000000000000e+00  2.3729810343519573e-04 -6.7508366906011653e-03 0.0000000000000000e+00  2.8672588936553547e-04 -6.9364094361510590e-03 0.0000000000000000e+00  3.4604916733592579e-04 -7.1398396498029808e-03 0.0000000000000000e+00  4.1707765799498371e-04 -7.3601110377886627e-03 0.0000000000000000e+00  5.8368691726997930e-04 -7.8203123813983515e-03 0.0000000000000000e+00  6.6926066781018863e-04 -8.0366204428949008e-03 0.0000000000000000e+00  7.5070692398484802e-04 -8.2322478866175431e-03 0.0000000000000000e+00  8.2460574501270968e-04 -8.4028696557431476e-03 0.0000000000000000e+00  8.8718599635986589e-04 -8.5477276353451669e-03 0.0000000000000000e+00  9.3578627493293154e-04 -8.6668552556982432e-03 0.0000000000000000e+00  9.6961078269779078e-04 -8.7586861783382763e-03 0.0000000000000000e+00  9.9039405945662204e-04 -8.8216229088105974e-03 0.0000000000000000e+00  1.0019445861914956e-03 -8.8548520763914763e-03 0.0000000000000000e+00  1.0089829685074310e-03 -8.8596584470702171e-03 0.0000000000000000e+00  1.0158096730874776e-03 -8.8401572467223626e-03 0.0000000000000000e+00  1.0250469686981522e-03 -8.8034263437125008e-03 0.0000000000000000e+00  1.0358843515379166e-03 -8.7568125584289776e-03 0.0000000000000000e+00  1.0461769190966024e-03 -8.7064110435100626e-03 0.0000000000000000e+00  1.0533426025869737e-03 -8.6551500040020178e-03 0.0000000000000000e+00  1.1762316598664612e-03 -8.6037928442449368e-03 0.0000000000000000e+00  1.1361794682310331e-03 -8.6038156553980942e-03 0.0000000000000000e+00  1.0960802907854000e-03 -8.6038378638079050e-03 0.0000000000000000e+00  1.2186642176109709e-03 -8.6546122637336399e-03 0.0000000000000000e+00  1.2265038000082624e-03 -8.7045034315159902e-03 0.0000000000000000e+00  1.2410571084961607e-03 -8.7532889914740761e-03 0.0000000000000000e+00  1.2645269925304699e-03 -8.8030054816107001e-03 0.0000000000000000e+00  1.2990758489441567e-03 -8.8583733791139877e-03 0.0000000000000000e+00  1.3443475818102932e-03 -8.9260657244979117e-03 0.0000000000000000e+00  1.3982456339523700e-03 -9.0109878766794372e-03 0.0000000000000000e+00  1.4565610779371601e-03 -9.1158943795178714e-03 0.0000000000000000e+00  1.5160349961321669e-03 -9.2404949905013894e-03 0.0000000000000000e+00  1.5750641410145600e-03 -9.3832249480441266e-03 0.0000000000000000e+00  1.6348818373342494e-03 -9.5422217029436443e-03 0.0000000000000000e+00  1.6995166356264348e-03 -9.7168752895754815e-03 0.0000000000000000e+00  1.7748330041036926e-03 -9.9077958287996180e-03 0.0000000000000000e+00  1.8663546306051740e-03 -1.0115696276293206e-02 0.0000000000000000e+00  1.9766840665189373e-03 -1.0339560535204477e-02 0.0000000000000000e+00  2.2393790945928744e-03 -1.0804748227616782e-02 0.0000000000000000e+00  2.3765054734347026e-03 -1.1021414363752577e-02 0.0000000000000000e+00  2.5082167032778537e-03 -1.1214862376928043e-02 0.0000000000000000e+00  2.6292794273232787e-03 -1.1379904367949507e-02 0.0000000000000000e+00  2.7348873988973918e-03 -1.1515112257143773e-02 0.0000000000000000e+00  2.8220462769757665e-03 -1.1620025583037971e-02 0.0000000000000000e+00  2.8901142545236986e-03 -1.1692602909765299e-02 0.0000000000000000e+00  2.9413148564316894e-03 -1.1731133402511739e-02 0.0000000000000000e+00  2.9799906028421638e-03 -1.1735072500993343e-02 0.0000000000000000e+00  3.0111925676706134e-03 -1.1706361056622625e-02 0.0000000000000000e+00  3.0392523054954121e-03 -1.1649998510364310e-02 0.0000000000000000e+00  3.0665399665955467e-03 -1.1573975920598488e-02 0.0000000000000000e+00  3.0918489641579747e-03 -1.1486370947625276e-02 0.0000000000000000e+00  3.1126883521796433e-03 -1.1393816676910768e-02 0.0000000000000000e+00  3.1262542974744120e-03 -1.1299637306213970e-02 0.0000000000000000e+00  3.3532678617759428e-03 -1.1205034566168254e-02 0.0000000000000000e+00  3.2792339913588491e-03 -1.1205032797184020e-02 0.0000000000000000e+00  3.2051437698419299e-03 -1.1205030396464042e-02 0.0000000000000000e+00  3.4317766230746432e-03 -1.1299171561172003e-02 0.0000000000000000e+00  3.4459403058858928e-03 -1.1391923639842616e-02 0.0000000000000000e+00  3.4710121110998562e-03 -1.1482677385135321e-02 0.0000000000000000e+00  3.5091920184768363e-03 -1.1573041657524310e-02 0.0000000000000000e+00  3.5626647789163157e-03 -1.1667387172280316e-02 0.0000000000000000e+00  3.6311314537516718e-03 -1.1772095592927722e-02 0.0000000000000000e+00  3.7126109865212383e-03 -1.1891765501241472e-02 0.0000000000000000e+00  3.8032183000025299e-03 -1.2028834082753025e-02 0.0000000000000000e+00  3.9003383061544258e-03 -1.2182777655356383e-02 0.0000000000000000e+00  4.0033729970940729e-03 -1.2352069766791613e-02 0.0000000000000000e+00  4.1147694450778156e-03 -1.2535390937050587e-02 0.0000000000000000e+00  4.2396589257418212e-03 -1.2733196561134540e-02 0.0000000000000000e+00  4.3841164802457169e-03 -1.2948036929171337e-02 0.0000000000000000e+00  4.5517090856319123e-03 -1.3183490393457649e-02 0.0000000000000000e+00  4.7396834599311329e-03 -1.3441532360087062e-02 0.0000000000000000e+00  5.1211292524252433e-03 -1.4002777067866646e-02 0.0000000000000000e+00  5.2810788038743835e-03 -1.4279272408009561e-02 0.0000000000000000e+00  5.4096247696857483e-03 -1.4536906273421720e-02 0.0000000000000000e+00  5.5088490888437845e-03 -1.4767760179779099e-02 0.0000000000000000e+00  5.5847863928641288e-03 -1.4971153168609868e-02 0.0000000000000000e+00  5.6430250274503539e-03 -1.5150439198058635e-02 0.0000000000000000e+00  5.6875926840537433e-03 -1.5309447934962229e-02 0.0000000000000000e+00  5.7209950244350473e-03 -1.5452041070450737e-02 0.0000000000000000e+00  5.7445833765543399e-03 -1.5581177808364707e-02 0.0000000000000000e+00  5.7593724466054024e-03 -1.5698618896606755e-02 0.0000000000000000e+00  5.7660624220778594e-03 -1.5805205129919207e-02 0.0000000000000000e+00  5.7655510913853895e-03 -1.5900575125045367e-02 0.0000000000000000e+00  5.7595226903070446e-03 -1.5983899726705563e-02 0.0000000000000000e+00  5.7499774994707528e-03 -1.6054177726935397e-02 0.0000000000000000e+00  5.7412482873337592e-03 -1.6111774197795477e-02 0.0000000000000000e+00  5.3432751284681725e-03 -1.6529966201869750e-02 0.0000000000000000e+00  5.3878613254498822e-03 -1.6476392997169721e-02 0.0000000000000000e+00  5.4274264577146344e-03 -1.6423050405640467e-02 0.0000000000000000e+00  5.4612559532942039e-03 -1.6371643833380460e-02 0.0000000000000000e+00  5.4896270078741982e-03 -1.6323755605542150e-02 0.0000000000000000e+00  5.5134380261604322e-03 -1.6280612351246906e-02 0.0000000000000000e+00  5.5339822305529229e-03 -1.6243206375637202e-02 0.0000000000000000e+00  5.5528423045469932e-03 -1.6212321979951941e-02 0.0000000000000000e+00  5.5718520970117072e-03 -1.6188526816567315e-02 0.0000000000000000e+00  5.5930437297075841e-03 -1.6172084221472590e-02 0.0000000000000000e+00  5.6187071936668028e-03 -1.6162892490537678e-02 0.0000000000000000e+00  5.6510814542181211e-03 -1.6159819043591407e-02 0.0000000000000000e+00  5.6915263219755874e-03 -1.6160712356814468e-02 0.0000000000000000e+00  1.1941643060732567e-02 -3.3671828749564668e-02 0.0000000000000000e+00  1.1917337058786911e-02 -3.3274105644465542e-02 0.0000000000000000e+00  1.1891404196913261e-02 -3.2871538785588746e-02 0.0000000000000000e+00  1.1862739286469462e-02 -3.2462150433686457e-02 0.0000000000000000e+00  1.1829935739310970e-02 -3.2045226358549228e-02 0.0000000000000000e+00  1.1792077459746513e-02 -3.1621007065534182e-02 0.0000000000000000e+00  1.1748658100082248e-02 -3.1190234328011317e-02 0.0000000000000000e+00  1.1699457073551510e-02 -3.0754010941862486e-02 0.0000000000000000e+00  1.1644703098239582e-02 -3.0313593517033062e-02 0.0000000000000000e+00  1.1584835939478687e-02 -2.9870250017834561e-02 0.0000000000000000e+00  1.1520482165055187e-02 -2.9425170046278766e-02 0.0000000000000000e+00  1.1452327397709896e-02 -2.8979469192396527e-02 0.0000000000000000e+00  1.1381069310816583e-02 -2.8534159089292452e-02 0.0000000000000000e+00  1.1307311700356355e-02 -2.8090162170666611e-02 0.0000000000000000e+00  1.1231504266298608e-02 -2.7648370896521435e-02 0.0000000000000000e+00  1.1153886446048063e-02 -2.7209730320495965e-02 0.0000000000000000e+00  1.1074555231975409e-02 -2.6775271380595923e-02 0.0000000000000000e+00  1.0993297165014217e-02 -2.6346320146667258e-02 0.0000000000000000e+00  1.0909794267125902e-02 -2.5924452028379740e-02 0.0000000000000000e+00  1.0823549841305576e-02 -2.5511720012899666e-02 0.0000000000000000e+00  1.0733971635472551e-02 -2.5110839530721324e-02 0.0000000000000000e+00  1.0640411322296223e-02 -2.4725609594357833e-02 0.0000000000000000e+00  1.0542227970210361e-02 -2.4362512723738503e-02 0.0000000000000000e+00  1.0441723159837381e-02 -2.4034219053084411e-02 0.0000000000000000e+00  1.0342972694670221e-02 -2.3733301727825958e-02 0.0000000000000000e+00  1.0245941965128486e-02 -2.3451526878884636e-02 0.0000000000000000e+00  1.0150233010694749e-02 -2.3185645118238157e-02 0.0000000000000000e+00  1.0055726007707799e-02 -2.2933449765843206e-02 0.0000000000000000e+00  9.9623670929404381e-03 -2.2693350614216599e-02 0.0000000000000000e+00  9.8702823015256354e-03 -2.2464091634895801e-02 0.0000000000000000e+00  9.7796861994144599e-03 -2.2244573799889752e-02 0.0000000000000000e+00  9.6909021987465743e-03 -2.2033778564763053e-02 0.0000000000000000e+00  9.6043255871880104e-03 -2.1830703119848444e-02 0.0000000000000000e+00  9.5203503760048023e-03 -2.1634359563650344e-02 0.0000000000000000e+00  9.4394104782905448e-03 -2.1443703851963820e-02 0.0000000000000000e+00  9.3618696825299979e-03 -2.1257689074879203e-02 0.0000000000000000e+00  9.2880280251636648e-03 -2.1075280334605706e-02 0.00000000000