<?xml version="1.0"?>
<VTKFile type="UnstructuredGrid"  version="0.1"  >
<UnstructuredGrid>
<Piece  NumberOfPoints="12853" NumberOfCells="23493">
<Points>
<DataArray  type="Float64"  NumberOfComponents="3"  format="ascii">-3.187178156719634e-14 1.7 0  0 0 0  1.3 3 0  -3.185690647650846e-14 4.300000000000001 0  -3.187178156719634e-14 4.699999999999999 0  1.3 6 0  -3.185690647650846e-14 7.300000000000001 0  -3.187178156719634e-14 7.699999999999999 0  1.3 9 0  -3.185690647650846e-14 10.3 0  -3.187178156719634e-14 10.7 0  1.3 12 0  -3.185690647650846e-14 13.3 0  -3.187178156719634e-14 13.7 0  1.3 15 0  -3.185690647650846e-14 16.3 0  0 18 0  18 18 0  17.99999999999997 16.3 0  17.99999999999997 13.7 0  17.99999999999997 13.3 0  17.99999999999997 10.7 0  17.99999999999997 10.3 0  17.99999999999997 7.7 0  17.99999999999997 7.3 0  17.99999999999997 4.7 0  17.99999999999997 4.3 0  17.99999999999997 1.7 0  18 0 0  4.3 3 0  7.3 3 0  10.3 3 0  4.3 6 0  7.3 6 0  10.3 6 0  13.3 3 0  16.3 3 0  13.3 6 0  16.3 6 0  4.3 9 0  4.3 12 0  7.3 9 0  10.3 9 0  7.3 12 0  10.3 12 0  4.3 15 0  7.3 15 0  10.3 15 0  13.3 9 0  13.3 12 0  16.3 9 0  16.3 12 0  13.3 15 0  16.3 15 0  0 1.578571428571429 0  0 1.457142857142856 0  0 1.335714285714285 0  0 1.214285714285712 0  0 1.092857142857142 0  0 0.9714285714285715 0  0 0.8499999999999979 0  0 0.7285714285714278 0  0 0.6071428571428577 0  0 0.485714285714284 0  0 0.3642857142857139 0  0 0.2428571428571438 0  0 0.1214285714285701 0  0.1274222824284281 1.706259855326144 0  0.2536174186209668 1.7249791354758 0  0.3773700804308007 1.755977563548128 0  0.497488462074617 1.798956607735327 0  0.6128157578737968 1.853502356347138 0  0.7222413029254824 1.919089504006691 0  0.8247112694127393 1.995086410628442 0  0.9192388155425116 2.080761184457488 0  1.004913589371558 2.17528873058726 0  1.080910495993309 2.277758697074517 0  1.146497643652861 2.387184242126203 0  1.201043392264673 2.502511537925383 0  1.244022436451871 2.622629919569199 0  1.275020864524199 2.746382581379033 0  1.293740144673856 2.872577717571571 0  1.293740144673856 3.127422282428428 0  1.2750208645242 3.253617418620966 0  1.244022436451872 3.3773700804308 0  1.201043392264673 3.497488462074616 0  1.146497643652862 3.612815757873796 0  1.08091049599331 3.722241302925481 0  1.00491358937156 3.824711269412738 0  0.9192388155425134 3.91923881554251 0  0.8247112694127412 4.004913589371556 0  0.7222413029254846 4.080910495993308 0  0.6128157578737984 4.146497643652861 0  0.4974884620746181 4.201043392264673 0  0.3773700804308024 4.244022436451871 0  0.2536174186209674 4.275020864524199 0  0.127422282428429 4.293740144673856 0  0 4.6 0  0 4.5 0  0 4.4 0  0.1274222824284281 4.706259855326143 0  0.2536174186209668 4.724979135475801 0  0.3773700804308007 4.755977563548129 0  0.497488462074617 4.798956607735327 0  0.6128157578737968 4.853502356347138 0  0.7222413029254824 4.919089504006691 0  0.8247112694127393 4.995086410628442 0  0.9192388155425116 5.080761184457488 0  1.004913589371558 5.17528873058726 0  1.080910495993309 5.277758697074518 0  1.146497643652861 5.387184242126203 0  1.201043392264673 5.502511537925383 0  1.244022436451871 5.622629919569198 0  1.275020864524199 5.746382581379033 0  1.293740144673856 5.872577717571572 0  1.293740144673856 6.127422282428428 0  1.2750208645242 6.253617418620967 0  1.244022436451872 6.377370080430801 0  1.201043392264673 6.497488462074616 0  1.146497643652862 6.612815757873795 0  1.08091049599331 6.722241302925481 0  1.00491358937156 6.824711269412737 0  0.9192388155425134 6.91923881554251 0  0.8247112694127412 7.004913589371556 0  0.7222413029254846 7.080910495993308 0  0.6128157578737984 7.146497643652861 0  0.4974884620746181 7.201043392264673 0  0.3773700804308024 7.244022436451871 0  0.2536174186209674 7.275020864524199 0  0.127422282428429 7.293740144673856 0  0 7.6 0  0 7.5 0  0 7.4 0  0.1274222824284281 7.706259855326143 0  0.2536174186209668 7.724979135475801 0  0.3773700804308007 7.755977563548129 0  0.497488462074617 7.798956607735327 0  0.6128157578737968 7.853502356347138 0  0.7222413029254824 7.919089504006691 0  0.8247112694127393 7.995086410628442 0  0.9192388155425116 8.080761184457488 0  1.004913589371558 8.17528873058726 0  1.080910495993309 8.277758697074518 0  1.146497643652861 8.387184242126203 0  1.201043392264673 8.502511537925383 0  1.244022436451871 8.622629919569199 0  1.275020864524199 8.746382581379033 0  1.293740144673856 8.872577717571572 0  1.293740144673856 9.127422282428428 0  1.2750208645242 9.253617418620966 0  1.244022436451872 9.377370080430801 0  1.201043392264673 9.497488462074616 0  1.146497643652862 9.612815757873795 0  1.08091049599331 9.722241302925481 0  1.00491358937156 9.824711269412738 0  0.9192388155425134 9.91923881554251 0  0.8247112694127412 10.00491358937156 0  0.7222413029254846 10.08091049599331 0  0.6128157578737984 10.14649764365286 0  0.4974884620746181 10.20104339226467 0  0.3773700804308024 10.24402243645187 0  0.2536174186209674 10.2750208645242 0  0.127422282428429 10.29374014467386 0  0 10.6 0  0 10.5 0  0 10.4 0  0.1274222824284281 10.70625985532614 0  0.2536174186209668 10.7249791354758 0  0.3773700804308007 10.75597756354813 0  0.497488462074617 10.79895660773533 0  0.6128157578737968 10.85350235634714 0  0.7222413029254824 10.91908950400669 0  0.8247112694127393 10.99508641062844 0  0.9192388155425116 11.08076118445749 0  1.004913589371558 11.17528873058726 0  1.080910495993309 11.27775869707452 0  1.146497643652861 11.3871842421262 0  1.201043392264673 11.50251153792538 0  1.244022436451871 11.6226299195692 0  1.275020864524199 11.74638258137903 0  1.293740144673856 11.87257771757157 0  1.293740144673856 12.12742228242843 0  1.2750208645242 12.25361741862097 0  1.244022436451872 12.3773700804308 0  1.201043392264673 12.49748846207462 0  1.146497643652862 12.6128157578738 0  1.08091049599331 12.72224130292548 0  1.00491358937156 12.82471126941274 0  0.9192388155425134 12.91923881554251 0  0.8247112694127412 13.00491358937156 0  0.7222413029254846 13.08091049599331 0  0.6128157578737984 13.14649764365286 0  0.4974884620746181 13.20104339226467 0  0.3773700804308024 13.24402243645187 0  0.2536174186209674 13.2750208645242 0  0.127422282428429 13.29374014467386 0  0 13.6 0  0 13.5 0  0 13.4 0  0.1274222824284281 13.70625985532614 0  0.2536174186209668 13.7249791354758 0  0.3773700804308007 13.75597756354813 0  0.497488462074617 13.79895660773533 0  0.6128157578737968 13.85350235634714 0  0.7222413029254824 13.91908950400669 0  0.8247112694127393 13.99508641062844 0  0.9192388155425116 14.08076118445749 0  1.004913589371558 14.17528873058726 0  1.080910495993309 14.27775869707452 0  1.146497643652861 14.3871842421262 0  1.201043392264673 14.50251153792538 0  1.244022436451871 14.6226299195692 0  1.275020864524199 14.74638258137903 0  1.293740144673856 14.87257771757157 0  1.293740144673856 15.12742228242843 0  1.2750208645242 15.25361741862097 0  1.244022436451872 15.3773700804308 0  1.201043392264673 15.49748846207462 0  1.146497643652862 15.6128157578738 0  1.08091049599331 15.72224130292548 0  1.00491358937156 15.82471126941274 0  0.9192388155425134 15.91923881554251 0  0.8247112694127412 16.00491358937156 0  0.7222413029254846 16.08091049599331 0  0.6128157578737984 16.14649764365286 0  0.4974884620746181 16.20104339226467 0  0.3773700804308024 16.24402243645187 0  0.2536174186209674 16.2750208645242 0  0.127422282428429 16.29374014467385 0  0 17.87857142857143 0  0 17.75714285714286 0  0 17.63571428571429 0  0 17.51428571428571 0  0 17.39285714285714 0  0 17.27142857142857 0  0 17.15 0  0 17.02857142857143 0  0 16.90714285714286 0  0 16.78571428571428 0  0 16.66428571428571 0  0 16.54285714285714 0  0 16.42142857142857 0  17.8705035971223 18 0  17.7410071942446 18 0  17.61151079136691 18 0  17.48201438848921 18 0  17.35251798561151 18 0  17.22302158273381 18 0  17.09352517985612 18 0  16.96402877697842 18 0  16.83453237410072 18 0  16.70503597122302 18 0  16.57553956834532 18 0  16.44604316546762 18 0  16.31654676258993 18 0  16.18705035971223 18 0  16.05755395683453 18 0  15.92805755395683 18 0  15.79856115107913 18 0  15.66906474820144 18 0  15.53956834532374 18 0  15.41007194244604 18 0  15.28057553956834 18 0  15.15107913669064 18 0  15.02158273381295 18 0  14.89208633093525 18 0  14.76258992805755 18 0  14.63309352517985 18 0  14.50359712230215 18 0  14.37410071942446 18 0  14.24460431654676 18 0  14.11510791366906 18 0  13.98561151079136 18 0  13.85611510791366 18 0  13.72661870503597 18 0  13.59712230215827 18 0  13.46762589928057 18 0  13.33812949640287 18 0  13.20863309352517 18 0  13.07913669064748 18 0  12.94964028776977 18 0  12.82014388489208 18 0  12.69064748201438 18 0  12.56115107913668 18 0  12.43165467625898 18 0  12.30215827338128 18 0  12.17266187050359 18 0  12.04316546762589 18 0  11.91366906474819 18 0  11.78417266187049 18 0  11.65467625899279 18 0  11.52517985611509 18 0  11.3956834532374 18 0  11.2661870503597 18 0  11.136690647482 18 0  11.0071942446043 18 0  10.8776978417266 18 0  10.7482014388489 18 0  10.6187050359712 18 0  10.48920863309351 18 0  10.35971223021581 18 0  10.23021582733811 18 0  10.10071942446041 18 0  9.971223021582714 18 0  9.841726618705016 18 0  9.712230215827317 18 0  9.582733812949618 18 0  9.453237410071921 18 0  9.323741007194224 18 0  9.194244604316525 18 0  9.064748201438828 18 0  8.935251798561131 18 0  8.805755395683434 18 0  8.676258992805735 18 0  8.546762589928038 18 0  8.417266187050341 18 0  8.287769784172642 18 0  8.158273381294947 18 0  8.028776978417248 18 0  7.899280575539549 18 0  7.769784172661854 18 0  7.640287769784155 18 0  7.510791366906458 18 0  7.381294964028761 18 0  7.251798561151062 18 0  7.122302158273365 18 0  6.992805755395668 18 0  6.86330935251797 18 0  6.733812949640273 18 0  6.604316546762576 18 0  6.474820143884878 18 0  6.34532374100718 18 0  6.215827338129483 18 0  6.086330935251786 18 0  5.956834532374087 18 0  5.827338129496392 18 0  5.697
[...]
<PointData  Vectors="f_21"> 
<DataArray  type="Float64"  Name="f_21"  NumberOfComponents="3" format="ascii">-8.5270209674921530e-04 -6.3797201746893547e-04 0.0000000000000000e+00  0.0000000000000000e+00 0.0000000000000000e+00 0.0000000000000000e+00  -1.5529832141762073e-03 -5.6098421247449690e-03 0.0000000000000000e+00  -2.3228824182885180e-03 -9.9020401452227080e-03 0.0000000000000000e+00  -2.3479284382224947e-03 -9.9019305983220479e-03 0.0000000000000000e+00  -1.6975234576388286e-03 -1.3970211858604933e-02 0.0000000000000000e+00  -5.9070798263801739e-04 -1.7106990880544844e-02 0.0000000000000000e+00  -2.1483620919688094e-04 -1.7107014174681964e-02 0.0000000000000000e+00  1.7882584893997371e-03 -2.2606394711716504e-02 0.0000000000000000e+00  3.5482394687793325e-03 -2.5570688977051496e-02 0.0000000000000000e+00  4.0483017726995890e-03 -2.5570843812867540e-02 0.0000000000000000e+00  6.8016434074338510e-03 -3.1508029939957667e-02 0.0000000000000000e+00  1.0034558948674799e-02 -3.3266722088373772e-02 0.0000000000000000e+00  1.0962863593753723e-02 -3.3267680694799892e-02 0.0000000000000000e+00  1.5650556896365807e-02 -4.0920877184451594e-02 0.0000000000000000e+00  1.8128718600019147e-02 -4.8249522457392377e-02 0.0000000000000000e+00  1.6829883855718902e-02 -4.9513043010670214e-02 0.0000000000000000e+00  3.6930357451445059e-02 -1.0275925482823171e-01 0.0000000000000000e+00  1.9885199241389536e-02 -1.0138948441918709e-01 0.0000000000000000e+00  1.6249201458502029e-02 -6.7692796571398123e-02 0.0000000000000000e+00  1.6024952550139561e-02 -6.7692841944355278e-02 0.0000000000000000e+00  1.3056062342962575e-02 -5.4140970683247788e-02 0.0000000000000000e+00  1.1970444463600849e-02 -5.4139832025021213e-02 0.0000000000000000e+00  8.6424380520626013e-03 -3.5546929271362319e-02 0.0000000000000000e+00  8.1804749049016849e-03 -3.5546951332516022e-02 0.0000000000000000e+00  5.6555198430085375e-03 -2.0037717815257913e-02 0.0000000000000000e+00  5.0845351757563577e-03 -2.0037562144892742e-02 0.0000000000000000e+00  1.4137749146560671e-03 -1.1072463340979178e-03 0.0000000000000000e+00  0.0000000000000000e+00 0.0000000000000000e+00 0.0000000000000000e+00  -9.1106929881248813e-04 -5.6254407557509755e-03 0.0000000000000000e+00  -4.6304716131881531e-04 -5.6868952465479201e-03 0.0000000000000000e+00  -2.7827217969650814e-04 -6.3169841566333151e-03 0.0000000000000000e+00  -1.3407520994877735e-04 -1.4376420489382633e-02 0.0000000000000000e+00  7.5936342697937383e-04 -1.4802422707784892e-02 0.0000000000000000e+00  1.8589608602062899e-03 -1.6699794614494397e-02 0.0000000000000000e+00  1.9718498764473953e-04 -7.5985875220779290e-03 0.0000000000000000e+00  1.1351790411147221e-03 -9.6466271902257462e-03 0.0000000000000000e+00  2.7347838079902044e-03 -2.0497445300641477e-02 0.0000000000000000e+00  5.2021971112119593e-03 -2.5729138027577200e-02 0.0000000000000000e+00  2.9142283875377918e-03 -2.3298436576582524e-02 0.0000000000000000e+00  8.5119576163534497e-03 -3.2168159647647902e-02 0.0000000000000000e+00  4.2284571371234659e-03 -2.3888693637791371e-02 0.0000000000000000e+00  4.9262312636362887e-03 -2.7044237527788326e-02 0.0000000000000000e+00  8.9801286958994166e-03 -3.2755398733197667e-02 0.0000000000000000e+00  1.0080352487509891e-02 -3.7116432508215474e-02 0.0000000000000000e+00  1.6325338344715064e-02 -4.0986343223386866e-02 0.0000000000000000e+00  1.7157920861589921e-02 -4.1069683271260947e-02 0.0000000000000000e+00  1.6323596426857840e-02 -4.6634663223057003e-02 0.0000000000000000e+00  6.6761271029403746e-03 -3.3144462634721580e-02 0.0000000000000000e+00  9.7642765225913180e-03 -4.5709662344211324e-02 0.0000000000000000e+00  7.6329987208817581e-03 -4.1830398915459768e-02 0.0000000000000000e+00  1.3651578896826010e-02 -5.8380943596672168e-02 0.0000000000000000e+00  1.6914472897011281e-02 -5.7084532015364557e-02 0.0000000000000000e+00  1.2059168812889770e-02 -7.6126536468286571e-02 0.0000000000000000e+00  -8.7872860136168295e-04 -6.3945070680932554e-04 0.0000000000000000e+00  -8.9764037867316173e-04 -6.4485078765477385e-04 0.0000000000000000e+00  -9.0168269561218873e-04 -6.4917859654684885e-04 0.0000000000000000e+00  -8.8936747805165649e-04 -6.4843961267865922e-04 0.0000000000000000e+00  -8.6159059295860374e-04 -6.3992845974440585e-04 0.0000000000000000e+00  -8.1991545093553116e-04 -6.2246618986314150e-04 0.0000000000000000e+00  -7.6571019639295763e-04 -5.9568050278032618e-04 0.0000000000000000e+00  -6.9999698718252402e-04 -5.5931545120093350e-04 0.0000000000000000e+00  -6.2327106255983514e-04 -5.1305144971273726e-04 0.0000000000000000e+00  -5.3548124721867747e-04 -4.5609346174354132e-04 0.0000000000000000e+00  -4.3590842645598011e-04 -3.8679878448427170e-04 0.0000000000000000e+00  -3.2278739398626906e-04 -3.0155940248190053e-04 0.0000000000000000e+00  -1.8895657761911413e-04 -1.9175906724449925e-04 0.0000000000000000e+00  -8.4942217929987699e-04 -6.6439258942000139e-04 0.0000000000000000e+00  -8.3750711936402108e-04 -7.0094156277704118e-04 0.0000000000000000e+00  -8.2038538446586819e-04 -7.6206355959344352e-04 0.0000000000000000e+00  -8.0473152441272802e-04 -8.5633299709341512e-04 0.0000000000000000e+00  -7.9407116591680073e-04 -9.8780728761424259e-04 0.0000000000000000e+00  -7.9274551557316790e-04 -1.1593927135656139e-03 0.0000000000000000e+00  -8.0397606452062037e-04 -1.3726336001346846e-03 0.0000000000000000e+00  -8.2970146950862725e-04 -1.6293224673004140e-03 0.0000000000000000e+00  -8.7176156087273712e-04 -1.9315982650937450e-03 0.0000000000000000e+00  -9.3033391744913499e-04 -2.2828855517766779e-03 0.0000000000000000e+00  -1.0049678949858635e-03 -2.6882378421417565e-03 0.0000000000000000e+00  -1.0941672321829316e-03 -3.1532972200001711e-03 0.0000000000000000e+00  -1.1960669163941448e-03 -3.6842131355204499e-03 0.0000000000000000e+00  -1.3091089138256393e-03 -4.2809170746485039e-03 0.0000000000000000e+00  -1.4304369624259467e-03 -4.9300675049751231e-03 0.0000000000000000e+00  -1.6636438348660942e-03 -6.2807255893927065e-03 0.0000000000000000e+00  -1.7521603022134934e-03 -6.9120183584784846e-03 0.0000000000000000e+00  -1.8141273539645155e-03 -7.4865653665619307e-03 0.0000000000000000e+00  -1.8548190772162904e-03 -7.9984891570723700e-03 0.0000000000000000e+00  -1.8878751021232287e-03 -8.4500835579215516e-03 0.0000000000000000e+00  -1.9266464276767889e-03 -8.8429467899760611e-03 0.0000000000000000e+00  -1.9795560963361304e-03 -9.1746995391839819e-03 0.0000000000000000e+00  -2.0466586157711752e-03 -9.4407187460533483e-03 0.0000000000000000e+00  -2.1220938176805689e-03 -9.6377259009790116e-03 0.0000000000000000e+00  -2.1946966178722628e-03 -9.7675599029140164e-03 0.0000000000000000e+00  -2.2535581435685964e-03 -9.8400464087216692e-03 0.0000000000000000e+00  -2.2923841744127956e-03 -9.8723341865866801e-03 0.0000000000000000e+00  -2.3127129909519396e-03 -9.8834382219032541e-03 0.0000000000000000e+00  -2.3204916905957109e-03 -9.8888431776477572e-03 0.0000000000000000e+00  -2.3225781241121568e-03 -9.8947940426959754e-03 0.0000000000000000e+00  -2.3413308882944536e-03 -9.9019165677244354e-03 0.0000000000000000e+00  -2.3349930724386116e-03 -9.9019860570759757e-03 0.0000000000000000e+00  -2.3288060973859093e-03 -9.9020546283797341e-03 0.0000000000000000e+00  -2.3484051001670110e-03 -9.8932213466550872e-03 0.0000000000000000e+00  -2.3486696423776991e-03 -9.8833681730825153e-03 0.0000000000000000e+00  -2.3447418366018299e-03 -9.8731537200883839e-03 0.0000000000000000e+00  -2.3299860681340657e-03 -9.8694746272165196e-03 0.0000000000000000e+00  -2.2975431335579030e-03 -9.8869672084241755e-03 0.0000000000000000e+00  -2.2474071103257926e-03 -9.9461233072321124e-03 0.0000000000000000e+00  -2.1842701210117439e-03 -1.0062916378302287e-02 0.0000000000000000e+00  -2.1198389199705301e-03 -1.0248170984334410e-02 0.0000000000000000e+00  -2.0647409619203075e-03 -1.0503400495372898e-02 0.0000000000000000e+00  -2.0254798620047143e-03 -1.0825094042475961e-02 0.0000000000000000e+00  -2.0014605989830672e-03 -1.1208447161014407e-02 0.0000000000000000e+00  -1.9834124749665621e-03 -1.1649555984451247e-02 0.0000000000000000e+00  -1.9569515777371322e-03 -1.2150215155040743e-02 0.0000000000000000e+00  -1.9055021290780945e-03 -1.2709509901575610e-02 0.0000000000000000e+00  -1.8192231817785050e-03 -1.3323128999797556e-02 0.0000000000000000e+00  -1.5478234938778844e-03 -1.4619451360246975e-02 0.0000000000000000e+00  -1.3822735471228070e-03 -1.5235104016649697e-02 0.0000000000000000e+00  -1.2126186245473485e-03 -1.5794914594133777e-02 0.0000000000000000e+00  -1.0516425421926011e-03 -1.6286548080219350e-02 0.0000000000000000e+00  -9.1213172892194185e-04 -1.6709432249672296e-02 0.0000000000000000e+00  -8.0483364617130984e-04 -1.7061682202309289e-02 0.0000000000000000e+00  -7.3411587822512275e-04 -1.7339186849311745e-02 0.0000000000000000e+00  -6.9616935768238616e-04 -1.7537044929891419e-02 0.0000000000000000e+00  -6.8213733918635910e-04 -1.7652426912781270e-02 0.0000000000000000e+00  -6.7848221380448204e-04 -1.7688238206317413e-02 0.0000000000000000e+00  -6.7283295993945849e-04 -1.7656041991001882e-02 0.0000000000000000e+00  -6.5825444695856157e-04 -1.7575087891648435e-02 0.0000000000000000e+00  -6.3633205467205907e-04 -1.7466564354951433e-02 0.0000000000000000e+00  -6.1335931908706347e-04 -1.7348051107872037e-02 0.0000000000000000e+00  -5.9672964976107551e-04 -1.7227478646766634e-02 0.0000000000000000e+00  -3.0847028813679549e-04 -1.7106958786199254e-02 0.0000000000000000e+00  -4.0236963073592049e-04 -1.7107003677052743e-02 0.0000000000000000e+00  -4.9640431835886606e-04 -1.7107047444739492e-02 0.0000000000000000e+00  -2.0908868459153818e-04 -1.7226000543563949e-02 0.0000000000000000e+00  -1.9054382416676310e-04 -1.7342597352256257e-02 0.0000000000000000e+00  -1.5522391841731785e-04 -1.7456547951637445e-02 0.0000000000000000e+00  -9.6680559208180714e-05 -1.7574049278902555e-02 0.0000000000000000e+00  -8.5889412541785181e-06 -1.7709229849841371e-02 0.0000000000000000e+00  1.0795116855073381e-04 -1.7881852038790176e-02 0.0000000000000000e+00  2.4703848010517013e-04 -1.8106539768120742e-02 0.0000000000000000e+00  3.9607271152185741e-04 -1.8392330829958385e-02 0.0000000000000000e+00  5.4431132117031919e-04 -1.8739059487608477e-02 0.0000000000000000e+00  6.8576051445282647e-04 -1.9142208068045986e-02 0.0000000000000000e+00  8.2175397099066270e-04 -1.9596841880174729e-02 0.0000000000000000e+00  9.6171865669540516e-04 -2.0100113136263545e-02 0.0000000000000000e+00  1.1192459924484941e-03 -2.0655047679220686e-02 0.0000000000000000e+00  1.3079039277230681e-03 -2.1262434700209245e-02 0.0000000000000000e+00  1.5330642608787747e-03 -2.1919453760216132e-02 0.0000000000000000e+00  2.0586943269520304e-03 -2.3291928279883790e-02 0.0000000000000000e+00  2.3272088525819450e-03 -2.3937190400893930e-02 0.0000000000000000e+00  2.5817792374792136e-03 -2.4520722360990021e-02 0.0000000000000000e+00  2.8120847681766207e-03 -2.5029305608135620e-02 0.0000000000000000e+00  3.0070149943998386e-03 -2.5460432855346989e-02 0.0000000000000000e+00  3.1588897186799136e-03 -2.5814044760375719e-02 0.0000000000000000e+00  3.2656115591648519e-03 -2.6085327283667536e-02 0.0000000000000000e+00  3.3326103387181167e-03 -2.6269474695012663e-02 0.0000000000000000e+00  3.3714487155440884e-03 -2.6364106053354264e-02 0.0000000000000000e+00  3.3963270126160820e-03 -2.6373182187273692e-02 0.0000000000000000e+00  3.4201123687789600e-03 -2.6309152096511502e-02 0.0000000000000000e+00  3.4505985481307860e-03 -2.6193303079077249e-02 0.0000000000000000e+00  3.4853019265732917e-03 -2.6047682273247365e-02 0.0000000000000000e+00  3.5177608042401194e-03 -2.5890566290939405e-02 0.0000000000000000e+00  3.5402300043551817e-03 -2.5730756767480469e-02 0.0000000000000000e+00  3.9236298498730206e-03 -2.5570754599207126e-02 0.0000000000000000e+00  3.7986852384431172e-03 -2.5570768175312560e-02 0.0000000000000000e+00  3.6735995157475753e-03 -2.5570779829345490e-02 0.0000000000000000e+00  4.0559478903809719e-03 -2.5729373669190252e-02 0.0000000000000000e+00  4.0802905254701226e-03 -2.5885107144907465e-02 0.0000000000000000e+00  4.1253408609198614e-03 -2.6037414424259855e-02 0.0000000000000000e+00  4.1976625843708863e-03 -2.6192317034224658e-02 0.0000000000000000e+00  4.3036868104852372e-03 -2.6363856193543325e-02 0.0000000000000000e+00  4.4423146209353996e-03 -2.6571892626538782e-02 0.0000000000000000e+00  4.6072568846461598e-03 -2.6830988655023827e-02 0.0000000000000000e+00  4.7859554362348648e-03 -2.7149249136967184e-02 0.0000000000000000e+00  4.9687531482005033e-03 -2.7525665169489150e-02 0.0000000000000000e+00  5.1510159563952036e-03 -2.7955407939102998e-02 0.0000000000000000e+00  5.3366840822134812e-03 -2.8432768860619014e-02 0.0000000000000000e+00  5.5381670594552342e-03 -2.8955789825292677e-02 0.0000000000000000e+00  5.7735099496505652e-03 -2.9526211815948226e-02 0.0000000000000000e+00  6.0597915795029761e-03 -3.0146290973334374e-02 0.0000000000000000e+00  6.4051414968483841e-03 -3.0813208983384271e-02 0.0000000000000000e+00  7.2278818667612203e-03 -3.2198807161966998e-02 0.0000000000000000e+00  7.6569906585995601e-03 -3.2844222558943169e-02 0.0000000000000000e+00  8.0686195203160879e-03 -3.3420139047183342e-02 0.0000000000000000e+00  8.4466013084032211e-03 -3.3910573670518168e-02 0.0000000000000000e+00  8.7764744137456083e-03 -3.4310849422146780e-02 0.0000000000000000e+00  9.0494541027627690e-03 -3.4619319409313357e-02 0.0000000000000000e+00  9.2638830413733636e-03 -3.4829667849996693e-02 0.0000000000000000e+00  9.4266818772880696e-03 -3.4936737703374750e-02 0.0000000000000000e+00  9.5510442124602073e-03 -3.4938995786115319e-02 0.0000000000000000e+00  9.6521687093111142e-03 -3.4842458025710336e-02 0.0000000000000000e+00  9.7429916278440262e-03 -3.4662335543043911e-02 0.0000000000000000e+00  9.8304971578333858e-03 -3.4422764260287550e-02 0.0000000000000000e+00  9.9109496672898194e-03 -3.4148069915894474e-02 0.0000000000000000e+00  9.9767954609255305e-03 -3.3858210133934662e-02 0.0000000000000000e+00  1.0019590934429666e-02 -3.3563228960598039e-02 0.0000000000000000e+00  1.0731159388073652e-02 -3.3267397224241733e-02 0.0000000000000000e+00  1.0499168626558171e-02 -3.3267203729762398e-02 0.0000000000000000e+00  1.0267007835664097e-02 -3.3267008076047246e-02 0.0000000000000000e+00  1.0976956873807175e-02 -3.3562609494358665e-02 0.0000000000000000e+00  1.1021059550132387e-02 -3.3853386138644803e-02 0.0000000000000000e+00  1.1099085723740243e-02 -3.4137948441249837e-02 0.0000000000000000e+00  1.1217580776240558e-02 -3.4420978060927983e-02 0.0000000000000000e+00  1.1383026646463448e-02 -3.4715418777699278e-02 0.0000000000000000e+00  1.1594474528301596e-02 -3.5040210849458943e-02 0.0000000000000000e+00  1.1845965421830416e-02 -3.5408946301451909e-02 0.0000000000000000e+00  1.2125915372517488e-02 -3.5828724737431351e-02 0.0000000000000000e+00  1.2426633435120408e-02 -3.6297797864156482e-02 0.0000000000000000e+00  1.2746568326916136e-02 -3.6811451232163457e-02 0.0000000000000000e+00  1.3093379265437671e-02 -3.7365678833661951e-02 0.0000000000000000e+00  1.3482826162586073e-02 -3.7961881345251379e-02 0.0000000000000000e+00  1.3933467723555935e-02 -3.8607929220284574e-02 0.0000000000000000e+00  1.4456029144879239e-02 -3.9315117456830445e-02 0.0000000000000000e+00  1.5041591297610806e-02 -4.0089985148030825e-02 0.0000000000000000e+00  1.6226750018765362e-02 -4.1777646900637261e-02 0.0000000000000000e+00  1.6721581103124036e-02 -4.2609957330877316e-02 0.0000000000000000e+00  1.7117834685341844e-02 -4.3385590059097263e-02 0.0000000000000000e+00  1.7422622997908588e-02 -4.4080212267781811e-02 0.0000000000000000e+00  1.7655206763576878e-02 -4.4691633670446741e-02 0.0000000000000000e+00  1.7833243171395913e-02 -4.5230002296407057e-02 0.0000000000000000e+00  1.7969399370456548e-02 -4.5706924610589048e-02 0.0000000000000000e+00  1.8071528287050605e-02 -4.6134117594317924e-02 0.0000000000000000e+00  1.8143864063234476e-02 -4.6520569095743945e-02 0.0000000000000000e+00  1.8189551410930486e-02 -4.6871641584259230e-02 0.0000000000000000e+00  1.8210731039806853e-02 -4.7189922088674251e-02 0.0000000000000000e+00  1.8210116182534219e-02 -4.7474376172181469e-02 0.0000000000000000e+00  1.8192763196729338e-02 -4.7722560044734269e-02 0.0000000000000000e+00  1.8164664479184241e-02 -4.7931507767274950e-02 0.0000000000000000e+00  1.8138820000525940e-02 -4.8102352297809188e-02 0.0000000000000000e+00  1.6970069870815185e-02 -4.9355466094986089e-02 0.0000000000000000e+00  1.7102095749324087e-02 -4.9194624120676461e-02 0.0000000000000000e+00  1.7218933404172843e-02 -4.9034486355206047e-02 0.0000000000000000e+00  1.7318491076673680e-02 -4.8880175607736026e-02 0.0000000000000000e+00  1.7401628908522100e-02 -4.8736442129896300e-02 0.0000000000000000e+00  1.7471062275384298e-02 -4.8606965720194364e-02 0.0000000000000000e+00  1.7530686657888251e-02 -4.8494721959946759e-02 0.0000000000000000e+00  1.7585263352505653e-02 -4.8402061338690655e-02 0.0000000000000000e+00  1.7640305546778787e-02 -4.8330682594090270e-02 0.0000000000000000e+00  1.7701919153421619e-02 -4.8281370507314778e-02 0.0000000000000000e+00  1.7776981667658995e-02 -4.8253810466424123e-02 0.0000000000000000e+00  1.7872210659515900e-02 -4.8244591740467004e-02 0.0000000000000000e+00  1.7991675389181824e-02 -4.8247247637943996e-02 0.0000000000000000e+00  3.6863634213182166e-02 -1.0153414067374468e-01 0.0000000000000000e+00  3.6793188124803568e-02 -1.0030812374242616e-01 0.0000000000000000e+00  3.6717856179908533e-02 -9.9068618379932250e-02 0.0000000000000000e+00  3.6634218788221692e-02 -9.7809226858793952e-02 0.0000000000000000e+00  3.6537931531832789e-02 -9.6527608584465352e-02 0.0000000000000000e+00  3.6426126036465944e-02 -9.5224424169229410e-02 0.0000000000000000e+00  3.6297183531239674e-02 -9.3901901375661234e-02 0.0000000000000000e+00  3.6150347871843964e-02 -9.2563399018531292e-02 0.0000000000000000e+00  3.5986238787400059e-02 -9.1212769201183111e-02 0.0000000000000000e+00  3.5806128150438161e-02 -8.9853917701207237e-02 0.0000000000000000e+00  3.5611869075111977e-02 -8.8490524613360252e-02 0.0000000000000000e+00  3.5405512910121256e-02 -8.7126057779359625e-02 0.0000000000000000e+00  3.5189167858307197e-02 -8.5763673979624130e-02 0.0000000000000000e+00  3.4964680440851957e-02 -8.4406258540696902e-02 0.0000000000000000e+00  3.4733450154895762e-02 -8.3056598481649466e-02 0.0000000000000000e+00  3.4496269246980980e-02 -8.1717629166789957e-02 0.0000000000000000e+00  3.4253497601720070e-02 -8.0392524676297372e-02 0.0000000000000000e+00  3.4004603349112497e-02 -7.9085328518120196e-02 0.0000000000000000e+00  3.3748724705571206e-02 -7.7800811275458473e-02 0.0000000000000000e+00  3.3484480038007226e-02 -7.6545147230154306e-02 0.0000000000000000e+00  3.3210201483812721e-02 -7.5326472505769862e-02 0.0000000000000000e+00  3.2924050703633030e-02 -7.4156145140318430e-02 0.0000000000000000e+00  3.2624207366279273e-02 -7.3053533664354617e-02 0.0000000000000000e+00  3.2317620607635225e-02 -7.2056527462194098e-02 0.0000000000000000e+00  3.2016534681553126e-02 -7.1142774608388776e-02 0.0000000000000000e+00  3.1720882469957377e-02 -7.0287496929854740e-02 0.0000000000000000e+00  3.1429503928938680e-02 -6.9480845682149184e-02 0.0000000000000000e+00  3.1142050818507575e-02 -6.8716092722772737e-02 0.0000000000000000e+00  3.0858352577141375e-02 -6.7988360260266278e-02 0.0000000000000000e+00  3.0578773113660328e-02 -6.7293783602402901e-02 0.0000000000000000e+00  3.0303924862439768e-02 -6.6628979453002918e-02 0.0000000000000000e+00  3.0034743996907750e-02 -6.5990821846180964e-02 0.0000000000000000e+00  2.9772374752441103e-02 -6.5376246702259777e-02 0.0000000000000000e+00  2.9517967840416753e-02 -6.4782252817673178e-02 0.0000000000000000e+00  2.9272788578044474e-02 -6.4205682674202250e-02 0.0000000000000000e+00  2.9037898082448329e-02 -6.3643382830057910e-02 0.0000000000000000e+00  2.8814179519266080e-02 -6.3092244938451017e-02 0.000000000000