<?xml version="1.0"?>
<VTKFile type="UnstructuredGrid"  version="0.1"  >
<UnstructuredGrid>
<Piece  NumberOfPoints="12853" NumberOfCells="23493">
<Points>
<DataArray  type="Float64"  NumberOfComponents="3"  format="ascii">-3.187178156719634e-14 1.7 0  0 0 0  1.3 3 0  -3.185690647650846e-14 4.300000000000001 0  -3.187178156719634e-14 4.699999999999999 0  1.3 6 0  -3.185690647650846e-14 7.300000000000001 0  -3.187178156719634e-14 7.699999999999999 0  1.3 9 0  -3.185690647650846e-14 10.3 0  -3.187178156719634e-14 10.7 0  1.3 12 0  -3.185690647650846e-14 13.3 0  -3.187178156719634e-14 13.7 0  1.3 15 0  -3.185690647650846e-14 16.3 0  0 18 0  18 18 0  17.99999999999997 16.3 0  17.99999999999997 13.7 0  17.99999999999997 13.3 0  17.99999999999997 10.7 0  17.99999999999997 10.3 0  17.99999999999997 7.7 0  17.99999999999997 7.3 0  17.99999999999997 4.7 0  17.99999999999997 4.3 0  17.99999999999997 1.7 0  18 0 0  4.3 3 0  7.3 3 0  10.3 3 0  4.3 6 0  7.3 6 0  10.3 6 0  13.3 3 0  16.3 3 0  13.3 6 0  16.3 6 0  4.3 9 0  4.3 12 0  7.3 9 0  10.3 9 0  7.3 12 0  10.3 12 0  4.3 15 0  7.3 15 0  10.3 15 0  13.3 9 0  13.3 12 0  16.3 9 0  16.3 12 0  13.3 15 0  16.3 15 0  0 1.578571428571429 0  0 1.457142857142856 0  0 1.335714285714285 0  0 1.214285714285712 0  0 1.092857142857142 0  0 0.9714285714285715 0  0 0.8499999999999979 0  0 0.7285714285714278 0  0 0.6071428571428577 0  0 0.485714285714284 0  0 0.3642857142857139 0  0 0.2428571428571438 0  0 0.1214285714285701 0  0.1274222824284281 1.706259855326144 0  0.2536174186209668 1.7249791354758 0  0.3773700804308007 1.755977563548128 0  0.497488462074617 1.798956607735327 0  0.6128157578737968 1.853502356347138 0  0.7222413029254824 1.919089504006691 0  0.8247112694127393 1.995086410628442 0  0.9192388155425116 2.080761184457488 0  1.004913589371558 2.17528873058726 0  1.080910495993309 2.277758697074517 0  1.146497643652861 2.387184242126203 0  1.201043392264673 2.502511537925383 0  1.244022436451871 2.622629919569199 0  1.275020864524199 2.746382581379033 0  1.293740144673856 2.872577717571571 0  1.293740144673856 3.127422282428428 0  1.2750208645242 3.253617418620966 0  1.244022436451872 3.3773700804308 0  1.201043392264673 3.497488462074616 0  1.146497643652862 3.612815757873796 0  1.08091049599331 3.722241302925481 0  1.00491358937156 3.824711269412738 0  0.9192388155425134 3.91923881554251 0  0.8247112694127412 4.004913589371556 0  0.7222413029254846 4.080910495993308 0  0.6128157578737984 4.146497643652861 0  0.4974884620746181 4.201043392264673 0  0.3773700804308024 4.244022436451871 0  0.2536174186209674 4.275020864524199 0  0.127422282428429 4.293740144673856 0  0 4.6 0  0 4.5 0  0 4.4 0  0.1274222824284281 4.706259855326143 0  0.2536174186209668 4.724979135475801 0  0.3773700804308007 4.755977563548129 0  0.497488462074617 4.798956607735327 0  0.6128157578737968 4.853502356347138 0  0.7222413029254824 4.919089504006691 0  0.8247112694127393 4.995086410628442 0  0.9192388155425116 5.080761184457488 0  1.004913589371558 5.17528873058726 0  1.080910495993309 5.277758697074518 0  1.146497643652861 5.387184242126203 0  1.201043392264673 5.502511537925383 0  1.244022436451871 5.622629919569198 0  1.275020864524199 5.746382581379033 0  1.293740144673856 5.872577717571572 0  1.293740144673856 6.127422282428428 0  1.2750208645242 6.253617418620967 0  1.244022436451872 6.377370080430801 0  1.201043392264673 6.497488462074616 0  1.146497643652862 6.612815757873795 0  1.08091049599331 6.722241302925481 0  1.00491358937156 6.824711269412737 0  0.9192388155425134 6.91923881554251 0  0.8247112694127412 7.004913589371556 0  0.7222413029254846 7.080910495993308 0  0.6128157578737984 7.146497643652861 0  0.4974884620746181 7.201043392264673 0  0.3773700804308024 7.244022436451871 0  0.2536174186209674 7.275020864524199 0  0.127422282428429 7.293740144673856 0  0 7.6 0  0 7.5 0  0 7.4 0  0.1274222824284281 7.706259855326143 0  0.2536174186209668 7.724979135475801 0  0.3773700804308007 7.755977563548129 0  0.497488462074617 7.798956607735327 0  0.6128157578737968 7.853502356347138 0  0.7222413029254824 7.919089504006691 0  0.8247112694127393 7.995086410628442 0  0.9192388155425116 8.080761184457488 0  1.004913589371558 8.17528873058726 0  1.080910495993309 8.277758697074518 0  1.146497643652861 8.387184242126203 0  1.201043392264673 8.502511537925383 0  1.244022436451871 8.622629919569199 0  1.275020864524199 8.746382581379033 0  1.293740144673856 8.872577717571572 0  1.293740144673856 9.127422282428428 0  1.2750208645242 9.253617418620966 0  1.244022436451872 9.377370080430801 0  1.201043392264673 9.497488462074616 0  1.146497643652862 9.612815757873795 0  1.08091049599331 9.722241302925481 0  1.00491358937156 9.824711269412738 0  0.9192388155425134 9.91923881554251 0  0.8247112694127412 10.00491358937156 0  0.7222413029254846 10.08091049599331 0  0.6128157578737984 10.14649764365286 0  0.4974884620746181 10.20104339226467 0  0.3773700804308024 10.24402243645187 0  0.2536174186209674 10.2750208645242 0  0.127422282428429 10.29374014467386 0  0 10.6 0  0 10.5 0  0 10.4 0  0.1274222824284281 10.70625985532614 0  0.2536174186209668 10.7249791354758 0  0.3773700804308007 10.75597756354813 0  0.497488462074617 10.79895660773533 0  0.6128157578737968 10.85350235634714 0  0.7222413029254824 10.91908950400669 0  0.8247112694127393 10.99508641062844 0  0.9192388155425116 11.08076118445749 0  1.004913589371558 11.17528873058726 0  1.080910495993309 11.27775869707452 0  1.146497643652861 11.3871842421262 0  1.201043392264673 11.50251153792538 0  1.244022436451871 11.6226299195692 0  1.275020864524199 11.74638258137903 0  1.293740144673856 11.87257771757157 0  1.293740144673856 12.12742228242843 0  1.2750208645242 12.25361741862097 0  1.244022436451872 12.3773700804308 0  1.201043392264673 12.49748846207462 0  1.146497643652862 12.6128157578738 0  1.08091049599331 12.72224130292548 0  1.00491358937156 12.82471126941274 0  0.9192388155425134 12.91923881554251 0  0.8247112694127412 13.00491358937156 0  0.7222413029254846 13.08091049599331 0  0.6128157578737984 13.14649764365286 0  0.4974884620746181 13.20104339226467 0  0.3773700804308024 13.24402243645187 0  0.2536174186209674 13.2750208645242 0  0.127422282428429 13.29374014467386 0  0 13.6 0  0 13.5 0  0 13.4 0  0.1274222824284281 13.70625985532614 0  0.2536174186209668 13.7249791354758 0  0.3773700804308007 13.75597756354813 0  0.497488462074617 13.79895660773533 0  0.6128157578737968 13.85350235634714 0  0.7222413029254824 13.91908950400669 0  0.8247112694127393 13.99508641062844 0  0.9192388155425116 14.08076118445749 0  1.004913589371558 14.17528873058726 0  1.080910495993309 14.27775869707452 0  1.146497643652861 14.3871842421262 0  1.201043392264673 14.50251153792538 0  1.244022436451871 14.6226299195692 0  1.275020864524199 14.74638258137903 0  1.293740144673856 14.87257771757157 0  1.293740144673856 15.12742228242843 0  1.2750208645242 15.25361741862097 0  1.244022436451872 15.3773700804308 0  1.201043392264673 15.49748846207462 0  1.146497643652862 15.6128157578738 0  1.08091049599331 15.72224130292548 0  1.00491358937156 15.82471126941274 0  0.9192388155425134 15.91923881554251 0  0.8247112694127412 16.00491358937156 0  0.7222413029254846 16.08091049599331 0  0.6128157578737984 16.14649764365286 0  0.4974884620746181 16.20104339226467 0  0.3773700804308024 16.24402243645187 0  0.2536174186209674 16.2750208645242 0  0.127422282428429 16.29374014467385 0  0 17.87857142857143 0  0 17.75714285714286 0  0 17.63571428571429 0  0 17.51428571428571 0  0 17.39285714285714 0  0 17.27142857142857 0  0 17.15 0  0 17.02857142857143 0  0 16.90714285714286 0  0 16.78571428571428 0  0 16.66428571428571 0  0 16.54285714285714 0  0 16.42142857142857 0  17.8705035971223 18 0  17.7410071942446 18 0  17.61151079136691 18 0  17.48201438848921 18 0  17.35251798561151 18 0  17.22302158273381 18 0  17.09352517985612 18 0  16.96402877697842 18 0  16.83453237410072 18 0  16.70503597122302 18 0  16.57553956834532 18 0  16.44604316546762 18 0  16.31654676258993 18 0  16.18705035971223 18 0  16.05755395683453 18 0  15.92805755395683 18 0  15.79856115107913 18 0  15.66906474820144 18 0  15.53956834532374 18 0  15.41007194244604 18 0  15.28057553956834 18 0  15.15107913669064 18 0  15.02158273381295 18 0  14.89208633093525 18 0  14.76258992805755 18 0  14.63309352517985 18 0  14.50359712230215 18 0  14.37410071942446 18 0  14.24460431654676 18 0  14.11510791366906 18 0  13.98561151079136 18 0  13.85611510791366 18 0  13.72661870503597 18 0  13.59712230215827 18 0  13.46762589928057 18 0  13.33812949640287 18 0  13.20863309352517 18 0  13.07913669064748 18 0  12.94964028776977 18 0  12.82014388489208 18 0  12.69064748201438 18 0  12.56115107913668 18 0  12.43165467625898 18 0  12.30215827338128 18 0  12.17266187050359 18 0  12.04316546762589 18 0  11.91366906474819 18 0  11.78417266187049 18 0  11.65467625899279 18 0  11.52517985611509 18 0  11.3956834532374 18 0  11.2661870503597 18 0  11.136690647482 18 0  11.0071942446043 18 0  10.8776978417266 18 0  10.7482014388489 18 0  10.6187050359712 18 0  10.48920863309351 18 0  10.35971223021581 18 0  10.23021582733811 18 0  10.10071942446041 18 0  9.971223021582714 18 0  9.841726618705016 18 0  9.712230215827317 18 0  9.582733812949618 18 0  9.453237410071921 18 0  9.323741007194224 18 0  9.194244604316525 18 0  9.064748201438828 18 0  8.935251798561131 18 0  8.805755395683434 18 0  8.676258992805735 18 0  8.546762589928038 18 0  8.417266187050341 18 0  8.287769784172642 18 0  8.158273381294947 18 0  8.028776978417248 18 0  7.899280575539549 18 0  7.769784172661854 18 0  7.640287769784155 18 0  7.510791366906458 18 0  7.381294964028761 18 0  7.251798561151062 18 0  7.122302158273365 18 0  6.992805755395668 18 0  6.86330935251797 18 0  6.733812949640273 18 0  6.604316546762576 18 0  6.474820143884878 18 0  6.34532374100718 18 0  6.215827338129483 18 0  6.086330935251786 18 0  5.956834532374087 18 0  5.827338129496392 18 0  5.697
[...]
<PointData  Vectors="f_21"> 
<DataArray  type="Float64"  Name="f_21"  NumberOfComponents="3" format="ascii">-4.0113503468882034e-03 -2.9909377596338458e-03 0.0000000000000000e+00  0.0000000000000000e+00 0.0000000000000000e+00 0.0000000000000000e+00  -6.7134342407977610e-03 -2.6281131832274450e-02 0.0000000000000000e+00  -8.8904942059053436e-03 -4.5304270962620900e-02 0.0000000000000000e+00  -8.6312201445116164e-03 -4.5303857504384967e-02 0.0000000000000000e+00  -3.4997262462546680e-03 -6.5404038582724311e-02 0.0000000000000000e+00  5.9383497965348805e-03 -7.6559109521550595e-02 0.0000000000000000e+00  8.8908412855440745e-03 -7.6569329882741788e-02 0.0000000000000000e+00  2.3271307758068065e-02 -1.0634909580211219e-01 0.0000000000000000e+00  3.5936502759991273e-02 -1.1808629721285631e-01 0.0000000000000000e+00  3.9268195004056122e-02 -1.1809944059807706e-01 0.0000000000000000e+00  5.7117403577515949e-02 -1.4921271241421355e-01 0.0000000000000000e+00  8.0097435153309623e-02 -1.5207239409943196e-01 0.0000000000000000e+00  8.6509388732612658e-02 -1.5212327539300416e-01 0.0000000000000000e+00  1.1687117933314249e-01 -1.9582631638395731e-01 0.0000000000000000e+00  1.3220131810210192e-01 -2.3224531672600890e-01 0.0000000000000000e+00  1.2712034511120585e-01 -2.3856803093176512e-01 0.0000000000000000e+00  2.3104710175670923e-01 -5.3867760019812372e-01 0.0000000000000000e+00  1.2986022184825771e-01 -5.2876659126277659e-01 0.0000000000000000e+00  1.0883312352141047e-01 -3.3882012695458819e-01 0.0000000000000000e+00  1.0940003118893867e-01 -3.3882003927232790e-01 0.0000000000000000e+00  8.5604193720492300e-02 -2.9210236641702286e-01 0.0000000000000000e+00  7.6044306897904618e-02 -2.9198978204949505e-01 0.0000000000000000e+00  5.1065742863320503e-02 -1.7906608958767128e-01 0.0000000000000000e+00  4.9492949000061688e-02 -1.7906420064580975e-01 0.0000000000000000e+00  3.2900446434702905e-02 -1.0827086108546045e-01 0.0000000000000000e+00  2.8541065877209684e-02 -1.0824838622554965e-01 0.0000000000000000e+00  7.0718033038755053e-03 -5.5749954103341149e-03 0.0000000000000000e+00  0.0000000000000000e+00 0.0000000000000000e+00 0.0000000000000000e+00  -3.7467524726825111e-03 -2.7097161074178571e-02 0.0000000000000000e+00  -9.2580411432206843e-04 -2.7350684782324473e-02 0.0000000000000000e+00  -9.0670917327713321e-04 -3.0709222266075257e-02 0.0000000000000000e+00  5.5421216756964507e-03 -6.9021112108318960e-02 0.0000000000000000e+00  8.6627736651624758e-03 -7.1499748949127015e-02 0.0000000000000000e+00  1.6310292647966025e-02 -8.1060630630660394e-02 0.0000000000000000e+00  2.7295087476906059e-03 -3.7192081215140636e-02 0.0000000000000000e+00  4.7136200955291132e-03 -4.9327919433416606e-02 0.0000000000000000e+00  1.6223711742623097e-02 -1.0164516859710165e-01 0.0000000000000000e+00  3.5419707140452492e-02 -1.3143589183957929e-01 0.0000000000000000e+00  2.7336671173990506e-02 -1.1211799221970108e-01 0.0000000000000000e+00  6.7823636987284136e-02 -1.5520772729772231e-01 0.0000000000000000e+00  3.5857781880420707e-02 -1.1539303198718177e-01 0.0000000000000000e+00  3.5921540225406438e-02 -1.3140721721360338e-01 0.0000000000000000e+00  6.7881372339657436e-02 -1.5858099229578412e-01 0.0000000000000000e+00  7.6661647738362662e-02 -1.8067811680989837e-01 0.0000000000000000e+00  1.1823601936163998e-01 -1.9849934532023669e-01 0.0000000000000000e+00  1.2385116545951080e-01 -1.9962860818796013e-01 0.0000000000000000e+00  1.1751585912700958e-01 -2.2691594423915287e-01 0.0000000000000000e+00  5.0515268887573947e-02 -1.6357071874095572e-01 0.0000000000000000e+00  6.7397699854574750e-02 -2.2599155939273793e-01 0.0000000000000000e+00  4.3350254578077840e-02 -2.1337845265124480e-01 0.0000000000000000e+00  1.0122904956066314e-01 -2.9753783343515061e-01 0.0000000000000000e+00  1.2314874843439345e-01 -2.8238201150714543e-01 0.0000000000000000e+00  8.1723477689383622e-02 -3.8757212902504068e-01 0.0000000000000000e+00  -4.1368972699247593e-03 -2.9978241197225987e-03 0.0000000000000000e+00  -4.2295232779097974e-03 -3.0235651822092570e-03 0.0000000000000000e+00  -4.2523595923393788e-03 -3.0450164415151784e-03 0.0000000000000000e+00  -4.1979117811011971e-03 -3.0433356008926294e-03 0.0000000000000000e+00  -4.0700375130745710e-03 -3.0056030905264868e-03 0.0000000000000000e+00  -3.8758818522009147e-03 -2.9260166958507841e-03 0.0000000000000000e+00  -3.6217728226721107e-03 -2.8026331920054919e-03 0.0000000000000000e+00  -3.3124813911962585e-03 -2.6340397505148034e-03 0.0000000000000000e+00  -2.9503398594550451e-03 -2.4185517227875756e-03 0.0000000000000000e+00  -2.5351445043121732e-03 -2.1522431579007310e-03 0.0000000000000000e+00  -2.0635840440267100e-03 -1.8271804929338752e-03 0.0000000000000000e+00  -1.5274776874740939e-03 -1.4261065983543146e-03 0.0000000000000000e+00  -8.9317366507097814e-04 -9.0792831240754342e-04 0.0000000000000000e+00  -3.9958414109729249e-03 -3.1181567875847764e-03 0.0000000000000000e+00  -3.9389415099949704e-03 -3.2922276122457957e-03 0.0000000000000000e+00  -3.8561946698562016e-03 -3.5813018713317692e-03 0.0000000000000000e+00  -3.7786328878616233e-03 -4.0262103976506985e-03 0.0000000000000000e+00  -3.7225090135470417e-03 -4.6463974661133641e-03 0.0000000000000000e+00  -3.7078341106460064e-03 -5.4557451888678117e-03 0.0000000000000000e+00  -3.7492269169708244e-03 -6.4614974693879166e-03 0.0000000000000000e+00  -3.8549692490673880e-03 -7.6717535145100673e-03 0.0000000000000000e+00  -4.0325805110049580e-03 -9.0958906859159323e-03 0.0000000000000000e+00  -4.2811687139060039e-03 -1.0748940640876333e-02 0.0000000000000000e+00  -4.5960333404238838e-03 -1.2653124242206397e-02 0.0000000000000000e+00  -4.9664731890372623e-03 -1.4833147864525381e-02 0.0000000000000000e+00  -5.3790343164051655e-03 -1.7315887733328282e-02 0.0000000000000000e+00  -5.8215593623896014e-03 -2.0099498859733823e-02 0.0000000000000000e+00  -6.2772456227548918e-03 -2.3121245919394334e-02 0.0000000000000000e+00  -7.0745387385749660e-03 -2.9397909351663684e-02 0.0000000000000000e+00  -7.3224793160865413e-03 -3.2331185444812928e-02 0.0000000000000000e+00  -7.4475936630694793e-03 -3.5001943559768420e-02 0.0000000000000000e+00  -7.4837973381111636e-03 -3.7380228535348586e-02 0.0000000000000000e+00  -7.5007646653734369e-03 -3.9472706044168256e-02 0.0000000000000000e+00  -7.5629847492589856e-03 -4.1282235470678101e-02 0.0000000000000000e+00  -7.7089252439104874e-03 -4.2793254697274859e-02 0.0000000000000000e+00  -7.9360209269126302e-03 -4.3981389645947805e-02 0.0000000000000000e+00  -8.2140612592068764e-03 -4.4830523311099872e-02 0.0000000000000000e+00  -8.4883302070194490e-03 -4.5350694598950962e-02 0.0000000000000000e+00  -8.7066449819379003e-03 -4.5590740653343932e-02 0.0000000000000000e+00  -8.8396302913983180e-03 -4.5634199669425300e-02 0.0000000000000000e+00  -8.8953904738424874e-03 -4.5572900886678640e-02 0.0000000000000000e+00  -8.9028745377758671e-03 -4.5481415598953932e-02 0.0000000000000000e+00  -8.8950014682840257e-03 -4.5390341842897627e-02 0.0000000000000000e+00  -8.6944340536963798e-03 -4.5303770135931322e-02 0.0000000000000000e+00  -8.7588834962513615e-03 -4.5304068909833670e-02 0.0000000000000000e+00  -8.8240628863728854e-03 -4.5304362775604831e-02 0.0000000000000000e+00  -8.6275931343785146e-03 -4.5382980653356615e-02 0.0000000000000000e+00  -8.6112167363127639e-03 -4.5455507635656721e-02 0.0000000000000000e+00  -8.5634093677276479e-03 -4.5523920801992579e-02 0.0000000000000000e+00  -8.4529591401483490e-03 -4.5619653433820948e-02 0.0000000000000000e+00  -8.2476904785240557e-03 -4.5810822805973248e-02 0.0000000000000000e+00  -7.9478952860182386e-03 -4.6193183382453269e-02 0.0000000000000000e+00  -7.5760419799654581e-03 -4.6840908084385645e-02 0.0000000000000000e+00  -7.1872160753815280e-03 -4.7803216663771443e-02 0.0000000000000000e+00  -6.8303723059990676e-03 -4.9084620937930257e-02 0.0000000000000000e+00  -6.5334598124112556e-03 -5.0665133674808370e-02 0.0000000000000000e+00  -6.2886131067271065e-03 -5.2517941437809058e-02 0.0000000000000000e+00  -6.0434972146120192e-03 -5.4620414365564043e-02 0.0000000000000000e+00  -5.7173470332200415e-03 -5.6976667083813257e-02 0.0000000000000000e+00  -5.2153751484145588e-03 -5.9582543090810049e-02 0.0000000000000000e+00  -4.4772095184868847e-03 -6.2420550420435685e-02 0.0000000000000000e+00  -2.3390497236431807e-03 -6.8396051745245406e-02 0.0000000000000000e+00  -1.0870849635430985e-03 -7.1230653747340056e-02 0.0000000000000000e+00  1.7032567008936703e-04 -7.3797809911023304e-02 0.0000000000000000e+00  1.3538416801838647e-03 -7.6028266466171057e-02 0.0000000000000000e+00  2.3956650461349161e-03 -7.7910711189692644e-02 0.0000000000000000e+00  3.2439782195258964e-03 -7.9427723269161477e-02 0.0000000000000000e+00  3.8815259247939574e-03 -8.0554482535829350e-02 0.0000000000000000e+00  4.3314567262082481e-03 -8.1266068375809131e-02 0.0000000000000000e+00  4.6394579717401480e-03 -8.1550574255466760e-02 0.0000000000000000e+00  4.8720268318574508e-03 -8.1426559706769819e-02 0.0000000000000000e+00  5.0874750338798479e-03 -8.0955114704893597e-02 0.0000000000000000e+00  5.3164510458921285e-03 -8.0233620272669740e-02 0.0000000000000000e+00  5.5485391905268997e-03 -7.9367434096821191e-02 0.0000000000000000e+00  5.7513242288752516e-03 -7.8443657461086072e-02 0.0000000000000000e+00  5.8882406592053486e-03 -7.7503079265525965e-02 0.0000000000000000e+00  8.1543356941289526e-03 -7.6566558502158474e-02 0.0000000000000000e+00  7.4165542297263539e-03 -7.6564237885296912e-02 0.0000000000000000e+00  6.6780959113412943e-03 -7.6561907451191721e-02 0.0000000000000000e+00  8.9332120175054756e-03 -7.7506427635386760e-02 0.0000000000000000e+00  9.0727365032606481e-03 -7.8428877731537214e-02 0.0000000000000000e+00  9.3278285203812605e-03 -7.9331852608350517e-02 0.0000000000000000e+00  9.7283055292716660e-03 -8.0241297597841280e-02 0.0000000000000000e+00  1.0302962112527432e-02 -8.1220986244188623e-02 0.0000000000000000e+00  1.1045141526371061e-02 -8.2361211878883400e-02 0.0000000000000000e+00  1.1925664330314190e-02 -8.3727502728004582e-02 0.0000000000000000e+00  1.2884847751840988e-02 -8.5358084974229739e-02 0.0000000000000000e+00  1.3873906357863730e-02 -8.7247349554640308e-02 0.0000000000000000e+00  1.4869066030632705e-02 -8.9369420166414887e-02 0.0000000000000000e+00  1.5884032074793449e-02 -9.1697474190245279e-02 0.0000000000000000e+00  1.6973147072028315e-02 -9.4217087342468295e-02 0.0000000000000000e+00  1.8212540795470147e-02 -9.6942924680415377e-02 0.0000000000000000e+00  1.9674556572044428e-02 -9.9887813120491220e-02 0.0000000000000000e+00  2.1380671372291174e-02 -1.0304849431480531e-01 0.0000000000000000e+00  2.5225523733687069e-02 -1.0965022835287293e-01 0.0000000000000000e+00  2.7112396711258369e-02 -1.1275948559749403e-01 0.0000000000000000e+00  2.8850900192027795e-02 -1.1556554249108426e-01 0.0000000000000000e+00  3.0389809605482983e-02 -1.1799093250583423e-01 0.0000000000000000e+00  3.1685460459071953e-02 -1.2001443664301902e-01 0.0000000000000000e+00  3.2714615317763346e-02 -1.2163081415698712e-01 0.0000000000000000e+00  3.3480387250297908e-02 -1.2281287164128776e-01 0.0000000000000000e+00  3.4020167400521058e-02 -1.2353734685948511e-01 0.0000000000000000e+00  3.4397985497296640e-02 -1.2379570930640754e-01 0.0000000000000000e+00  3.4686816986838100e-02 -1.2361270497877266e-01 0.0000000000000000e+00  3.4949842500656032e-02 -1.2305511627467100e-01 0.0000000000000000e+00  3.5223204504373315e-02 -1.2223181638200506e-01 0.0000000000000000e+00  3.5492410035663037e-02 -1.2125356452622521e-01 0.0000000000000000e+00  3.5724083422725372e-02 -1.2021168920822249e-01 0.0000000000000000e+00  3.5879500934092576e-02 -1.1915117080800978e-01 0.0000000000000000e+00  3.8436953900284808e-02 -1.1809592757850568e-01 0.0000000000000000e+00  3.7604382665346228e-02 -1.1809289201105533e-01 0.0000000000000000e+00  3.6771108444985337e-02 -1.1808984206914735e-01 0.0000000000000000e+00  3.9315545647513148e-02 -1.1915722849648139e-01 0.0000000000000000e+00  3.9472141069625800e-02 -1.2019907684516112e-01 0.0000000000000000e+00  3.9756996134516921e-02 -1.2121920184458446e-01 0.0000000000000000e+00  4.0201043736847450e-02 -1.2224408427044481e-01 0.0000000000000000e+00  4.0834002873580279e-02 -1.2333895135964487e-01 0.0000000000000000e+00  4.1648901220729152e-02 -1.2459637447015089e-01 0.0000000000000000e+00  4.2614161238029434e-02 -1.2608235193848502e-01 0.0000000000000000e+00  4.3669978911888355e-02 -1.2783028536117122e-01 0.0000000000000000e+00  4.4773531098006664e-02 -1.2982910609320933e-01 0.0000000000000000e+00  4.5910005059112594e-02 -1.3204922599083260e-01 0.0000000000000000e+00  4.7110613219703446e-02 -1.3445779490188636e-01 0.0000000000000000e+00  4.8452768012063205e-02 -1.3704077951145366e-01 0.0000000000000000e+00  5.0047758802609491e-02 -1.3980463573701751e-01 0.0000000000000000e+00  5.2004405007746730e-02 -1.4276751409155358e-01 0.0000000000000000e+00  5.4378514865659637e-02 -1.4592583636726189e-01 0.0000000000000000e+00  6.0062821267354551e-02 -1.5248977245600348e-01 0.0000000000000000e+00  6.3013411335622965e-02 -1.5555134469145018e-01 0.0000000000000000e+00  6.5820329287508667e-02 -1.5826594723988030e-01 0.0000000000000000e+00  6.8381871198547051e-02 -1.6053391846039938e-01 0.0000000000000000e+00  7.0624445967880756e-02 -1.6231533622274080e-01 0.0000000000000000e+00  7.2513218952217351e-02 -1.6359192831986097e-01 0.0000000000000000e+00  7.4051535778854718e-02 -1.6432540482228142e-01 0.0000000000000000e+00  7.5284549393019762e-02 -1.6449010400079792e-01 0.0000000000000000e+00  7.6285181976962838e-02 -1.6408322605501421e-01 0.0000000000000000e+00  7.7131504452716645e-02 -1.6314315513593042e-01 0.0000000000000000e+00  7.7886080950792441e-02 -1.6175489692513215e-01 0.0000000000000000e+00  7.8578969817357569e-02 -1.6004625489904473e-01 0.0000000000000000e+00  7.9186816973681115e-02 -1.5814337628659803e-01 0.0000000000000000e+00  7.9668476066646635e-02 -1.5614935364047597e-01 0.0000000000000000e+00  7.9980171105240985e-02 -1.5411812121580648e-01 0.0000000000000000e+00  8.4908257281092983e-02 -1.5211037764525440e-01 0.0000000000000000e+00  8.3305704677069881e-02 -1.5209787779635631e-01 0.0000000000000000e+00  8.1702278727062469e-02 -1.5208535525825259e-01 0.0000000000000000e+00  8.6592953109200413e-02 -1.5416267089136354e-01 0.0000000000000000e+00  8.6881743806421524e-02 -1.5617745778331288e-01 0.0000000000000000e+00  8.7394166679237356e-02 -1.5815189946637218e-01 0.0000000000000000e+00  8.8160688272405460e-02 -1.6010340983033591e-01 0.0000000000000000e+00  8.9210507316938845e-02 -1.6208986801179315e-01 0.0000000000000000e+00  9.0536099845314230e-02 -1.6419755142266271e-01 0.0000000000000000e+00  9.2106250336843692e-02 -1.6648568490612087e-01 0.0000000000000000e+00  9.3865147055443812e-02 -1.6898060186787561e-01 0.0000000000000000e+00  9.5779924109044040e-02 -1.7166607838938144e-01 0.0000000000000000e+00  9.7852074969035141e-02 -1.7451337968961381e-01 0.0000000000000000e+00  1.0013190895171267e-01 -1.7750158471570565e-01 0.0000000000000000e+00  1.0271147943728953e-01 -1.8064075417142766e-01 0.0000000000000000e+00  1.0569440524745417e-01 -1.8398097632317287e-01 0.0000000000000000e+00  1.0913159504788009e-01 -1.8760223999483433e-01 0.0000000000000000e+00  1.1294859456507228e-01 -1.9156076008609280e-01 0.0000000000000000e+00  1.2052196711226840e-01 -2.0025015873681679e-01 0.0000000000000000e+00  1.2359334549553318e-01 -2.0455258774826887e-01 0.0000000000000000e+00  1.2599777480360089e-01 -2.0855394629898766e-01 0.0000000000000000e+00  1.2780869037056106e-01 -2.1211230624352259e-01 0.0000000000000000e+00  1.2916913957596604e-01 -2.1521414756835455e-01 0.0000000000000000e+00  1.3020199868170820e-01 -2.1791595837595260e-01 0.0000000000000000e+00  1.3099262963041372e-01 -2.2028211033787057e-01 0.0000000000000000e+00  1.3159253472041632e-01 -2.2237736049364079e-01 0.0000000000000000e+00  1.3202919905523436e-01 -2.2425166861285051e-01 0.0000000000000000e+00  1.3232170604552532e-01 -2.2593549321910225e-01 0.0000000000000000e+00  1.3248192925806831e-01 -2.2744470064869274e-01 0.0000000000000000e+00  1.3252394180862237e-01 -2.2877643997658251e-01 0.0000000000000000e+00  1.3247297591037796e-01 -2.2992055070010023e-01 0.0000000000000000e+00  1.3235856909567259e-01 -2.3086401794012865e-01 0.0000000000000000e+00  1.3224560832794741e-01 -2.3161433745384039e-01 0.0000000000000000e+00  1.2773073480941566e-01 -2.3777870270896662e-01 0.0000000000000000e+00  1.2829315209931444e-01 -2.3697220361245813e-01 0.0000000000000000e+00  1.2877655596054258e-01 -2.3616955693328648e-01 0.0000000000000000e+00  1.2917181908780273e-01 -2.3539652929980304e-01 0.0000000000000000e+00  1.2948398148035434e-01 -2.3467694910888737e-01 0.0000000000000000e+00  1.2972714694211548e-01 -2.3402920696212920e-01 0.0000000000000000e+00  1.2992120876021887e-01 -2.3346814364010543e-01 0.0000000000000000e+00  1.3009032416169805e-01 -2.3300544810341095e-01 0.0000000000000000e+00  1.3026236931725269e-01 -2.3264949907687424e-01 0.0000000000000000e+00  1.3046812573730918e-01 -2.3240407848047970e-01 0.0000000000000000e+00  1.3074216957091409e-01 -2.3226733845747374e-01 0.0000000000000000e+00  1.3111806712447252e-01 -2.3222184653712724e-01 0.0000000000000000e+00  1.3161580529548789e-01 -2.3223491723877107e-01 0.0000000000000000e+00  2.3085707360192836e-01 -5.3112557979124142e-01 0.0000000000000000e+00  2.3063338671697017e-01 -5.2366798117169322e-01 0.0000000000000000e+00  2.3038333646827813e-01 -5.1618199807785758e-01 0.0000000000000000e+00  2.3008665831649072e-01 -5.0861745786365742e-01 0.0000000000000000e+00  2.2971710333362774e-01 -5.0095468267916377e-01 0.0000000000000000e+00  2.2925565074340115e-01 -4.9319429864168018e-01 0.0000000000000000e+00  2.2869010160133865e-01 -4.8534729182032277e-01 0.0000000000000000e+00  2.2801260868209869e-01 -4.7743227470360006e-01 0.0000000000000000e+00  2.2722317284610352e-01 -4.6947172045189289e-01 0.0000000000000000e+00  2.2632571803340185e-01 -4.6148932836967477e-01 0.0000000000000000e+00  2.2532793935831613e-01 -4.5350821473463793e-01 0.0000000000000000e+00  2.2423931893104343e-01 -4.4555099746204274e-01 0.0000000000000000e+00  2.2307055724598851e-01 -4.3763890919593451e-01 0.0000000000000000e+00  2.2183193727873329e-01 -4.2979177832657667e-01 0.0000000000000000e+00  2.2053223727712470e-01 -4.2202866125038846e-01 0.0000000000000000e+00  2.1917825821842488e-01 -4.1436901639242918e-01 0.0000000000000000e+00  2.1777456713918378e-01 -4.0683266541832463e-01 0.0000000000000000e+00  2.1632292460951266e-01 -3.9944316366076504e-01 0.0000000000000000e+00  2.1482289258075191e-01 -3.9222672962331917e-01 0.0000000000000000e+00  2.1327213667187117e-01 -3.8521540177288111e-01 0.0000000000000000e+00  2.1166695647358028e-01 -3.7844992977629488e-01 0.0000000000000000e+00  2.1000274042664840e-01 -3.7198595314008592e-01 0.0000000000000000e+00  2.0827481707555007e-01 -3.6591756453616475e-01 0.0000000000000000e+00  2.0652030891001386e-01 -3.6042982179926591e-01 0.0000000000000000e+00  2.0480169977710547e-01 -3.5540827864791164e-01 0.0000000000000000e+00  2.0312075918857800e-01 -3.5072594419226372e-01 0.0000000000000000e+00  2.0147355387919991e-01 -3.4632944242364377e-01 0.0000000000000000e+00  1.9985942102436557e-01 -3.4218057328467033e-01 0.0000000000000000e+00  1.9827775715456011e-01 -3.3825029876186025e-01 0.0000000000000000e+00  1.9673027677970517e-01 -3.3451495606946346e-01 0.0000000000000000e+00  1.9521924336709834e-01 -3.3095359075574798e-01 0.0000000000000000e+00  1.9374830388090897e-01 -3.2754708292824669e-01 0.0000000000000000e+00  1.9232174465329085e-01 -3.2427714205824165e-01 0.0000000000000000e+00  1.9094413929192286e-01 -3.2112651928121755e-01 0.0000000000000000e+00  1.8962036559666126e-01 -3.1807764380709813e-01 0.0000000000000000e+00  1.8835437729249166e-01 -3.1511350652237485e-01 0.0000000000000000e+00  1.8714971116997847e-01 -3.1221777273940388e-01 0.0000000000000000e+00  1.860077264830