<?xml version="1.0"?>
<VTKFile type="UnstructuredGrid"  version="0.1"  >
<UnstructuredGrid>
<Piece  NumberOfPoints="12853" NumberOfCells="23493">
<Points>
<DataArray  type="Float64"  NumberOfComponents="3"  format="ascii">-3.187178156719634e-14 1.7 0  0 0 0  1.3 3 0  -3.185690647650846e-14 4.300000000000001 0  -3.187178156719634e-14 4.699999999999999 0  1.3 6 0  -3.185690647650846e-14 7.300000000000001 0  -3.187178156719634e-14 7.699999999999999 0  1.3 9 0  -3.185690647650846e-14 10.3 0  -3.187178156719634e-14 10.7 0  1.3 12 0  -3.185690647650846e-14 13.3 0  -3.187178156719634e-14 13.7 0  1.3 15 0  -3.185690647650846e-14 16.3 0  0 18 0  18 18 0  17.99999999999997 16.3 0  17.99999999999997 13.7 0  17.99999999999997 13.3 0  17.99999999999997 10.7 0  17.99999999999997 10.3 0  17.99999999999997 7.7 0  17.99999999999997 7.3 0  17.99999999999997 4.7 0  17.99999999999997 4.3 0  17.99999999999997 1.7 0  18 0 0  4.3 3 0  7.3 3 0  10.3 3 0  4.3 6 0  7.3 6 0  10.3 6 0  13.3 3 0  16.3 3 0  13.3 6 0  16.3 6 0  4.3 9 0  4.3 12 0  7.3 9 0  10.3 9 0  7.3 12 0  10.3 12 0  4.3 15 0  7.3 15 0  10.3 15 0  13.3 9 0  13.3 12 0  16.3 9 0  16.3 12 0  13.3 15 0  16.3 15 0  0 1.578571428571429 0  0 1.457142857142856 0  0 1.335714285714285 0  0 1.214285714285712 0  0 1.092857142857142 0  0 0.9714285714285715 0  0 0.8499999999999979 0  0 0.7285714285714278 0  0 0.6071428571428577 0  0 0.485714285714284 0  0 0.3642857142857139 0  0 0.2428571428571438 0  0 0.1214285714285701 0  0.1274222824284281 1.706259855326144 0  0.2536174186209668 1.7249791354758 0  0.3773700804308007 1.755977563548128 0  0.497488462074617 1.798956607735327 0  0.6128157578737968 1.853502356347138 0  0.7222413029254824 1.919089504006691 0  0.8247112694127393 1.995086410628442 0  0.9192388155425116 2.080761184457488 0  1.004913589371558 2.17528873058726 0  1.080910495993309 2.277758697074517 0  1.146497643652861 2.387184242126203 0  1.201043392264673 2.502511537925383 0  1.244022436451871 2.622629919569199 0  1.275020864524199 2.746382581379033 0  1.293740144673856 2.872577717571571 0  1.293740144673856 3.127422282428428 0  1.2750208645242 3.253617418620966 0  1.244022436451872 3.3773700804308 0  1.201043392264673 3.497488462074616 0  1.146497643652862 3.612815757873796 0  1.08091049599331 3.722241302925481 0  1.00491358937156 3.824711269412738 0  0.9192388155425134 3.91923881554251 0  0.8247112694127412 4.004913589371556 0  0.7222413029254846 4.080910495993308 0  0.6128157578737984 4.146497643652861 0  0.4974884620746181 4.201043392264673 0  0.3773700804308024 4.244022436451871 0  0.2536174186209674 4.275020864524199 0  0.127422282428429 4.293740144673856 0  0 4.6 0  0 4.5 0  0 4.4 0  0.1274222824284281 4.706259855326143 0  0.2536174186209668 4.724979135475801 0  0.3773700804308007 4.755977563548129 0  0.497488462074617 4.798956607735327 0  0.6128157578737968 4.853502356347138 0  0.7222413029254824 4.919089504006691 0  0.8247112694127393 4.995086410628442 0  0.9192388155425116 5.080761184457488 0  1.004913589371558 5.17528873058726 0  1.080910495993309 5.277758697074518 0  1.146497643652861 5.387184242126203 0  1.201043392264673 5.502511537925383 0  1.244022436451871 5.622629919569198 0  1.275020864524199 5.746382581379033 0  1.293740144673856 5.872577717571572 0  1.293740144673856 6.127422282428428 0  1.2750208645242 6.253617418620967 0  1.244022436451872 6.377370080430801 0  1.201043392264673 6.497488462074616 0  1.146497643652862 6.612815757873795 0  1.08091049599331 6.722241302925481 0  1.00491358937156 6.824711269412737 0  0.9192388155425134 6.91923881554251 0  0.8247112694127412 7.004913589371556 0  0.7222413029254846 7.080910495993308 0  0.6128157578737984 7.146497643652861 0  0.4974884620746181 7.201043392264673 0  0.3773700804308024 7.244022436451871 0  0.2536174186209674 7.275020864524199 0  0.127422282428429 7.293740144673856 0  0 7.6 0  0 7.5 0  0 7.4 0  0.1274222824284281 7.706259855326143 0  0.2536174186209668 7.724979135475801 0  0.3773700804308007 7.755977563548129 0  0.497488462074617 7.798956607735327 0  0.6128157578737968 7.853502356347138 0  0.7222413029254824 7.919089504006691 0  0.8247112694127393 7.995086410628442 0  0.9192388155425116 8.080761184457488 0  1.004913589371558 8.17528873058726 0  1.080910495993309 8.277758697074518 0  1.146497643652861 8.387184242126203 0  1.201043392264673 8.502511537925383 0  1.244022436451871 8.622629919569199 0  1.275020864524199 8.746382581379033 0  1.293740144673856 8.872577717571572 0  1.293740144673856 9.127422282428428 0  1.2750208645242 9.253617418620966 0  1.244022436451872 9.377370080430801 0  1.201043392264673 9.497488462074616 0  1.146497643652862 9.612815757873795 0  1.08091049599331 9.722241302925481 0  1.00491358937156 9.824711269412738 0  0.9192388155425134 9.91923881554251 0  0.8247112694127412 10.00491358937156 0  0.7222413029254846 10.08091049599331 0  0.6128157578737984 10.14649764365286 0  0.4974884620746181 10.20104339226467 0  0.3773700804308024 10.24402243645187 0  0.2536174186209674 10.2750208645242 0  0.127422282428429 10.29374014467386 0  0 10.6 0  0 10.5 0  0 10.4 0  0.1274222824284281 10.70625985532614 0  0.2536174186209668 10.7249791354758 0  0.3773700804308007 10.75597756354813 0  0.497488462074617 10.79895660773533 0  0.6128157578737968 10.85350235634714 0  0.7222413029254824 10.91908950400669 0  0.8247112694127393 10.99508641062844 0  0.9192388155425116 11.08076118445749 0  1.004913589371558 11.17528873058726 0  1.080910495993309 11.27775869707452 0  1.146497643652861 11.3871842421262 0  1.201043392264673 11.50251153792538 0  1.244022436451871 11.6226299195692 0  1.275020864524199 11.74638258137903 0  1.293740144673856 11.87257771757157 0  1.293740144673856 12.12742228242843 0  1.2750208645242 12.25361741862097 0  1.244022436451872 12.3773700804308 0  1.201043392264673 12.49748846207462 0  1.146497643652862 12.6128157578738 0  1.08091049599331 12.72224130292548 0  1.00491358937156 12.82471126941274 0  0.9192388155425134 12.91923881554251 0  0.8247112694127412 13.00491358937156 0  0.7222413029254846 13.08091049599331 0  0.6128157578737984 13.14649764365286 0  0.4974884620746181 13.20104339226467 0  0.3773700804308024 13.24402243645187 0  0.2536174186209674 13.2750208645242 0  0.127422282428429 13.29374014467386 0  0 13.6 0  0 13.5 0  0 13.4 0  0.1274222824284281 13.70625985532614 0  0.2536174186209668 13.7249791354758 0  0.3773700804308007 13.75597756354813 0  0.497488462074617 13.79895660773533 0  0.6128157578737968 13.85350235634714 0  0.7222413029254824 13.91908950400669 0  0.8247112694127393 13.99508641062844 0  0.9192388155425116 14.08076118445749 0  1.004913589371558 14.17528873058726 0  1.080910495993309 14.27775869707452 0  1.146497643652861 14.3871842421262 0  1.201043392264673 14.50251153792538 0  1.244022436451871 14.6226299195692 0  1.275020864524199 14.74638258137903 0  1.293740144673856 14.87257771757157 0  1.293740144673856 15.12742228242843 0  1.2750208645242 15.25361741862097 0  1.244022436451872 15.3773700804308 0  1.201043392264673 15.49748846207462 0  1.146497643652862 15.6128157578738 0  1.08091049599331 15.72224130292548 0  1.00491358937156 15.82471126941274 0  0.9192388155425134 15.91923881554251 0  0.8247112694127412 16.00491358937156 0  0.7222413029254846 16.08091049599331 0  0.6128157578737984 16.14649764365286 0  0.4974884620746181 16.20104339226467 0  0.3773700804308024 16.24402243645187 0  0.2536174186209674 16.2750208645242 0  0.127422282428429 16.29374014467385 0  0 17.87857142857143 0  0 17.75714285714286 0  0 17.63571428571429 0  0 17.51428571428571 0  0 17.39285714285714 0  0 17.27142857142857 0  0 17.15 0  0 17.02857142857143 0  0 16.90714285714286 0  0 16.78571428571428 0  0 16.66428571428571 0  0 16.54285714285714 0  0 16.42142857142857 0  17.8705035971223 18 0  17.7410071942446 18 0  17.61151079136691 18 0  17.48201438848921 18 0  17.35251798561151 18 0  17.22302158273381 18 0  17.09352517985612 18 0  16.96402877697842 18 0  16.83453237410072 18 0  16.70503597122302 18 0  16.57553956834532 18 0  16.44604316546762 18 0  16.31654676258993 18 0  16.18705035971223 18 0  16.05755395683453 18 0  15.92805755395683 18 0  15.79856115107913 18 0  15.66906474820144 18 0  15.53956834532374 18 0  15.41007194244604 18 0  15.28057553956834 18 0  15.15107913669064 18 0  15.02158273381295 18 0  14.89208633093525 18 0  14.76258992805755 18 0  14.63309352517985 18 0  14.50359712230215 18 0  14.37410071942446 18 0  14.24460431654676 18 0  14.11510791366906 18 0  13.98561151079136 18 0  13.85611510791366 18 0  13.72661870503597 18 0  13.59712230215827 18 0  13.46762589928057 18 0  13.33812949640287 18 0  13.20863309352517 18 0  13.07913669064748 18 0  12.94964028776977 18 0  12.82014388489208 18 0  12.69064748201438 18 0  12.56115107913668 18 0  12.43165467625898 18 0  12.30215827338128 18 0  12.17266187050359 18 0  12.04316546762589 18 0  11.91366906474819 18 0  11.78417266187049 18 0  11.65467625899279 18 0  11.52517985611509 18 0  11.3956834532374 18 0  11.2661870503597 18 0  11.136690647482 18 0  11.0071942446043 18 0  10.8776978417266 18 0  10.7482014388489 18 0  10.6187050359712 18 0  10.48920863309351 18 0  10.35971223021581 18 0  10.23021582733811 18 0  10.10071942446041 18 0  9.971223021582714 18 0  9.841726618705016 18 0  9.712230215827317 18 0  9.582733812949618 18 0  9.453237410071921 18 0  9.323741007194224 18 0  9.194244604316525 18 0  9.064748201438828 18 0  8.935251798561131 18 0  8.805755395683434 18 0  8.676258992805735 18 0  8.546762589928038 18 0  8.417266187050341 18 0  8.287769784172642 18 0  8.158273381294947 18 0  8.028776978417248 18 0  7.899280575539549 18 0  7.769784172661854 18 0  7.640287769784155 18 0  7.510791366906458 18 0  7.381294964028761 18 0  7.251798561151062 18 0  7.122302158273365 18 0  6.992805755395668 18 0  6.86330935251797 18 0  6.733812949640273 18 0  6.604316546762576 18 0  6.474820143884878 18 0  6.34532374100718 18 0  6.215827338129483 18 0  6.086330935251786 18 0  5.956834532374087 18 0  5.827338129496392 18 0  5.697
[...]
<PointData  Vectors="f_21"> 
<DataArray  type="Float64"  Name="f_21"  NumberOfComponents="3" format="ascii">-1.1327219815603893e-03 -8.4736224618294940e-04 0.0000000000000000e+00  0.0000000000000000e+00 0.0000000000000000e+00 0.0000000000000000e+00  -2.0554083408570304e-03 -7.4509018982838911e-03 0.0000000000000000e+00  -3.0582008535402455e-03 -1.3133267285101273e-02 0.0000000000000000e+00  -3.0857158584644637e-03 -1.3133122402318143e-02 0.0000000000000000e+00  -2.1889465246474975e-03 -1.8550906396959468e-02 0.0000000000000000e+00  -6.5439003313138688e-04 -2.2663742717142062e-02 0.0000000000000000e+00  -1.3744682071426047e-04 -2.2663873938803317e-02 0.0000000000000000e+00  2.5983376594917130e-03 -3.0026077363959600e-02 0.0000000000000000e+00  5.0065652467912378e-03 -3.3925021432090530e-02 0.0000000000000000e+00  5.6869904233775434e-03 -3.3925391041601104e-02 0.0000000000000000e+00  9.4239638129227608e-03 -4.1863575211643377e-02 0.0000000000000000e+00  1.3842078235879759e-02 -4.4110601811385292e-02 0.0000000000000000e+00  1.5108133431993839e-02 -4.4112449250241173e-02 0.0000000000000000e+00  2.1474109951993330e-02 -5.4399508349308817e-02 0.0000000000000000e+00  2.4828675734447511e-02 -6.4169339706691628e-02 0.0000000000000000e+00  2.3116635679307676e-02 -6.5854389898434840e-02 0.0000000000000000e+00  4.9982112129701835e-02 -1.3740898032374313e-01 0.0000000000000000e+00  2.6978256922411775e-02 -1.3553218467860564e-01 0.0000000000000000e+00  2.2082439841069126e-02 -9.0291507981237321e-02 0.0000000000000000e+00  2.1799102570998811e-02 -9.0291545818849558e-02 0.0000000000000000e+00  1.7714744701834127e-02 -7.2460912590173801e-02 0.0000000000000000e+00  1.6216853634588305e-02 -7.2458553408884921e-02 0.0000000000000000e+00  1.1653142726644625e-02 -4.7461510223274030e-02 0.0000000000000000e+00  1.1035992946036438e-02 -4.7461415482446014e-02 0.0000000000000000e+00  7.6048032738528790e-03 -2.6818517178506432e-02 0.0000000000000000e+00  6.8261734499736274e-03 -2.6818093869682397e-02 0.0000000000000000e+00  1.8859398183868189e-03 -1.4776774904384669e-03 0.0000000000000000e+00  0.0000000000000000e+00 0.0000000000000000e+00 0.0000000000000000e+00  -1.2021391725722730e-03 -7.4822497727442391e-03 0.0000000000000000e+00  -5.9894842386671568e-04 -7.5632350307000560e-03 0.0000000000000000e+00  -3.6146727809629233e-04 -8.4048248582326204e-03 0.0000000000000000e+00  -8.8889683516109254e-05 -1.9116221281224175e-02 0.0000000000000000e+00  1.0898466780637887e-03 -1.9687340392627036e-02 0.0000000000000000e+00  2.5744495489289044e-03 -2.2218077678006133e-02 0.0000000000000000e+00  2.7981048421583883e-04 -1.0118348143478116e-02 0.0000000000000000e+00  1.5070440497629565e-03 -1.2877757127901531e-02 0.0000000000000000e+00  3.7017035521300754e-03 -2.7307344469206855e-02 0.0000000000000000e+00  7.0496213320391321e-03 -3.4348038854015377e-02 0.0000000000000000e+00  4.0821126691662534e-03 -3.0983238493768051e-02 0.0000000000000000e+00  1.1733507615622850e-02 -4.2782971566511008e-02 0.0000000000000000e+00  5.8551137229419939e-03 -3.1772485351392404e-02 0.0000000000000000e+00  6.7523956501678731e-03 -3.5982464116591305e-02 0.0000000000000000e+00  1.2330160651652371e-02 -4.3570093665852218e-02 0.0000000000000000e+00  1.3829652589785090e-02 -4.9386070845672453e-02 0.0000000000000000e+00  2.2343531137713066e-02 -5.4520901411939639e-02 0.0000000000000000e+00  2.3471778736790350e-02 -5.4637574341353225e-02 0.0000000000000000e+00  2.2330267664297399e-02 -6.2047314038979118e-02 0.0000000000000000e+00  9.1378526646554003e-03 -4.4146103498640968e-02 0.0000000000000000e+00  1.3319878132697693e-02 -6.0887907040559734e-02 0.0000000000000000e+00  1.0300532677044786e-02 -5.5837242438158768e-02 0.0000000000000000e+00  1.8660212032715728e-02 -7.7920368591984396e-02 0.0000000000000000e+00  2.3139592794639976e-02 -7.6029293730818237e-02 0.0000000000000000e+00  1.6410366552380672e-02 -1.0160173043909838e-01 0.0000000000000000e+00  -1.1673625412124090e-03 -8.4932519000349303e-04 0.0000000000000000e+00  -1.1925612937853677e-03 -8.5650579847975608e-04 0.0000000000000000e+00  -1.1980082154654033e-03 -8.6227628356401605e-04 0.0000000000000000e+00  -1.1817171240314720e-03 -8.6132854333154736e-04 0.0000000000000000e+00  -1.1448718176224006e-03 -8.5006456548629970e-04 0.0000000000000000e+00  -1.0895458091782226e-03 -8.2691324555426049e-04 0.0000000000000000e+00  -1.0175550647587785e-03 -7.9137647130671143e-04 0.0000000000000000e+00  -9.3025713069558335e-04 -7.4311049608740104e-04 0.0000000000000000e+00  -8.2831016491886878e-04 -6.8168759501913351e-04 0.0000000000000000e+00  -7.1164693716992502e-04 -6.0604832407362772e-04 0.0000000000000000e+00  -5.7931339476488791e-04 -5.1400675093756670e-04 0.0000000000000000e+00  -4.2896662639562826e-04 -4.0076455143162363e-04 0.0000000000000000e+00  -2.5109251918320089e-04 -2.5486421465212322e-04 0.0000000000000000e+00  -1.1283629754579587e-03 -8.8252308132230172e-04 0.0000000000000000e+00  -1.1125168670674578e-03 -9.3112505855055209e-04 0.0000000000000000e+00  -1.0897278297786542e-03 -1.0123626682974759e-03 0.0000000000000000e+00  -1.0688572508116591e-03 -1.1376375303306290e-03 0.0000000000000000e+00  -1.0545837295811496e-03 -1.3123478099881850e-03 0.0000000000000000e+00  -1.0526689457387068e-03 -1.5403597630013189e-03 0.0000000000000000e+00  -1.0673862169855968e-03 -1.8237256928359752e-03 0.0000000000000000e+00  -1.1013004944889669e-03 -2.1648217336002504e-03 0.0000000000000000e+00  -1.1568444298968464e-03 -2.5664773042513456e-03 0.0000000000000000e+00  -1.2342366203757029e-03 -3.0332221846727015e-03 0.0000000000000000e+00  -1.3328546605261631e-03 -3.5717406721936513e-03 0.0000000000000000e+00  -1.4506796702661187e-03 -4.1894888786094230e-03 0.0000000000000000e+00  -1.5851977793875738e-03 -4.8945891315667770e-03 0.0000000000000000e+00  -1.7343061596396233e-03 -5.6868987165122481e-03 0.0000000000000000e+00  -1.8941799730179359e-03 -6.5486553050021629e-03 0.0000000000000000e+00  -2.2005772557358184e-03 -8.3412206795757411e-03 0.0000000000000000e+00  -2.3161067419569564e-03 -9.1789549023970247e-03 0.0000000000000000e+00  -2.3962602181376771e-03 -9.9414021676023801e-03 0.0000000000000000e+00  -2.4481907809493441e-03 -1.0620760216117929e-02 0.0000000000000000e+00  -2.4901396449091614e-03 -1.1220017859513964e-02 0.0000000000000000e+00  -2.5399038605177860e-03 -1.1741213139907995e-02 0.0000000000000000e+00  -2.6086779484793881e-03 -1.2181098287344063e-02 0.0000000000000000e+00  -2.6965026503331011e-03 -1.2533474606388696e-02 0.0000000000000000e+00  -2.7955598926662040e-03 -1.2793964213851535e-02 0.0000000000000000e+00  -2.8909882672777734e-03 -1.2965027872224621e-02 0.0000000000000000e+00  -2.9682875688477337e-03 -1.3059758801897704e-02 0.0000000000000000e+00  -3.0191042403876545e-03 -1.3100982601134580e-02 0.0000000000000000e+00  -3.0454978820029037e-03 -1.3113994629374997e-02 0.0000000000000000e+00  -3.0553855006967300e-03 -1.3119388310874541e-02 0.0000000000000000e+00  -3.0578868968768680e-03 -1.3125475746478306e-02 0.0000000000000000e+00  -3.0783902086754782e-03 -1.3133103720202701e-02 0.0000000000000000e+00  -3.0714098246999708e-03 -1.3133195751193174e-02 0.0000000000000000e+00  -3.0646303391312088e-03 -1.3133286563034930e-02 0.0000000000000000e+00  -3.0862591688448331e-03 -1.3123386144932877e-02 0.0000000000000000e+00  -3.0863420490859998e-03 -1.3112111484653976e-02 0.0000000000000000e+00  -3.0806783390450346e-03 -1.3100317991779508e-02 0.0000000000000000e+00  -3.0604521722833013e-03 -1.3097148461833024e-02 0.0000000000000000e+00  -3.0165497627034216e-03 -1.3122031591791114e-02 0.0000000000000000e+00  -2.9489620124434619e-03 -1.3202179283778096e-02 0.0000000000000000e+00  -2.8639223442656452e-03 -1.3358800565110790e-02 0.0000000000000000e+00  -2.7769789296151364e-03 -1.3606254971234674e-02 0.0000000000000000e+00  -2.7022339570422797e-03 -1.3946514716501948e-02 0.0000000000000000e+00  -2.6482898228207875e-03 -1.4374856140098823e-02 0.0000000000000000e+00  -2.6142822858818099e-03 -1.4884816817150204e-02 0.0000000000000000e+00  -2.5877599096023923e-03 -1.5471123104556795e-02 0.0000000000000000e+00  -2.5494054592545261e-03 -1.6136072096751868e-02 0.0000000000000000e+00  -2.4769270157152445e-03 -1.6878438570560639e-02 0.0000000000000000e+00  -2.3570316543624148e-03 -1.7692549270893428e-02 0.0000000000000000e+00  -1.9828887639155414e-03 -1.9412136207125810e-02 0.0000000000000000e+00  -1.7555651598726587e-03 -2.0228835183900631e-02 0.0000000000000000e+00  -1.5230643000425103e-03 -2.0971381730483237e-02 0.0000000000000000e+00  -1.3026683299393010e-03 -2.1623208295807050e-02 0.0000000000000000e+00  -1.1114735255430088e-03 -2.2183404321555376e-02 0.0000000000000000e+00  -9.6376397633769404e-04 -2.2649307791833318e-02 0.0000000000000000e+00  -8.6527348065192241e-04 -2.3015349867660996e-02 0.0000000000000000e+00  -8.1084283778860215e-04 -2.3274974560500726e-02 0.0000000000000000e+00  -7.8863177813904195e-04 -2.3424434327333214e-02 0.0000000000000000e+00  -7.8060260722119306e-04 -2.3467662494988852e-02 0.0000000000000000e+00  -7.7031420729830051e-04 -2.3420126065759533e-02 0.0000000000000000e+00  -7.4858210161370098e-04 -2.3307506017355251e-02 0.0000000000000000e+00  -7.1755792285146719e-04 -2.3158039418884648e-02 0.0000000000000000e+00  -6.8564656069224094e-04 -2.2995147114813427e-02 0.0000000000000000e+00  -6.6269755749339299e-04 -2.2829415915615121e-02 0.0000000000000000e+00  -2.6623828744362274e-04 -2.2663775569918967e-02 0.0000000000000000e+00  -3.9538261928082226e-04 -2.2663810046529238e-02 0.0000000000000000e+00  -5.2470747142744647e-04 -2.2663842964552039e-02 0.0000000000000000e+00  -1.2956746724027132e-04 -2.2827553617834177e-02 0.0000000000000000e+00  -1.0413812760488007e-04 -2.2988006393579299e-02 0.0000000000000000e+00  -5.5878886757026027e-05 -2.3144836941891435e-02 0.0000000000000000e+00  2.3769994672754971e-05 -2.3306229699958911e-02 0.0000000000000000e+00  1.4319787322200004e-04 -2.3490914712066529e-02 0.0000000000000000e+00  3.0092257189568951e-04 -2.3725108161649733e-02 0.0000000000000000e+00  4.8908350341861590e-04 -2.4028191615157048e-02 0.0000000000000000e+00  6.9093463077471971e-04 -2.4412108205658613e-02 0.0000000000000000e+00  8.9222975373723064e-04 -2.4876560642896881e-02 0.0000000000000000e+00  1.0850710388334529e-03 -2.5415465800388028e-02 0.0000000000000000e+00  1.2713413935613806e-03 -2.6022194257274239e-02 0.0000000000000000e+00  1.4637215347589067e-03 -2.6692920768459919e-02 0.0000000000000000e+00  1.6804660108021212e-03 -2.7431643924325580e-02 0.0000000000000000e+00  1.9397598373296493e-03 -2.8239524811269290e-02 0.0000000000000000e+00  2.2487182041140974e-03 -2.9112967731634260e-02 0.0000000000000000e+00  2.9681963389549320e-03 -3.0937422362166633e-02 0.0000000000000000e+00  3.3347086387784243e-03 -3.1795290292607463e-02 0.0000000000000000e+00  3.6814893552129489e-03 -3.2571047810219481e-02 0.0000000000000000e+00  3.9947413943867312e-03 -3.3246894053361856e-02 0.0000000000000000e+00  4.2598032327427716e-03 -3.3819324329082877e-02 0.0000000000000000e+00  4.4666559988975766e-03 -3.4288152031976875e-02 0.0000000000000000e+00  4.6127119022488557e-03 -3.4646882542050970e-02 0.0000000000000000e+00  4.7053723702226227e-03 -3.4889103123103969e-02 0.0000000000000000e+00  4.7601522604820874e-03 -3.5011683874316919e-02 0.0000000000000000e+00  4.7960134170418863e-03 -3.5019982657653236e-02 0.0000000000000000e+00  4.8300885883688664e-03 -3.4930671730581821e-02 0.0000000000000000e+00  4.8727185817065881e-03 -3.4772172668890003e-02 0.0000000000000000e+00  4.9205554296244975e-03 -3.4573887234843975e-02 0.0000000000000000e+00  4.9649646586485737e-03 -3.4360179175395335e-02 0.0000000000000000e+00  4.9956199337095946e-03 -3.4142797051620474e-02 0.0000000000000000e+00  5.5173417838595539e-03 -3.3925231780125249e-02 0.0000000000000000e+00  5.3473301159368564e-03 -3.3925208856097316e-02 0.0000000000000000e+00  5.1771302244592674e-03 -3.3925183288481368e-02 0.0000000000000000e+00  5.6973481742889614e-03 -3.4141124904796684e-02 0.0000000000000000e+00  5.7303910834750754e-03 -3.4353096883661637e-02 0.0000000000000000e+00  5.7914492645433930e-03 -3.4560422990945791e-02 0.0000000000000000e+00  5.8892425153781172e-03 -3.4771069822114052e-02 0.0000000000000000e+00  6.0323056187172285e-03 -3.5003674186729936e-02 0.0000000000000000e+00  6.2191508501810424e-03 -3.5284604740727588e-02 0.0000000000000000e+00  6.4413922971145289e-03 -3.5633167961548341e-02 0.0000000000000000e+00  6.6823342012679119e-03 -3.6060056504025398e-02 0.0000000000000000e+00  6.9291859004955705e-03 -3.6563826683129838e-02 0.0000000000000000e+00  7.1758954165603399e-03 -3.7137945563542357e-02 0.0000000000000000e+00  7.4278900950234946e-03 -3.7774718591768078e-02 0.0000000000000000e+00  7.7019497970280317e-03 -3.8471447890958223e-02 0.0000000000000000e+00  8.0224598019054336e-03 -3.9230396244418320e-02 0.0000000000000000e+00  8.4125569937883553e-03 -4.0054660676787722e-02 0.0000000000000000e+00  8.8833135016751774e-03 -4.0940648237880690e-02 0.0000000000000000e+00  1.0005153065841996e-02 -4.2781242713900894e-02 0.0000000000000000e+00  1.0590016890415511e-02 -4.3638640031690122e-02 0.0000000000000000e+00  1.1150688005535861e-02 -4.4403461561263381e-02 0.0000000000000000e+00  1.1665276304007814e-02 -4.5054094061696123e-02 0.0000000000000000e+00  1.2114470963049580e-02 -4.5584024078903808e-02 0.0000000000000000e+00  1.2486701489847356e-02 -4.5990871735637054e-02 0.0000000000000000e+00  1.2779948754964928e-02 -4.6266085017240541e-02 0.0000000000000000e+00  1.3003617194573300e-02 -4.6402774379815083e-02 0.0000000000000000e+00  1.3175415537489176e-02 -4.6398968994947831e-02 0.0000000000000000e+00  1.3315641174721643e-02 -4.6262827724200171e-02 0.0000000000000000e+00  1.3441501973147581e-02 -4.6014782754643845e-02 0.0000000000000000e+00  1.3562222009284253e-02 -4.5687131274185430e-02 0.0000000000000000e+00  1.3672738952920959e-02 -4.5312374969286875e-02 0.0000000000000000e+00  1.3762924061144184e-02 -4.4917167728245652e-02 0.0000000000000000e+00  1.3821495909631080e-02 -4.4514954233312011e-02 0.0000000000000000e+00  1.4792115621924883e-02 -4.4111929769370034e-02 0.0000000000000000e+00  1.4475715958449160e-02 -4.4111529161849822e-02 0.0000000000000000e+00  1.4159088951605744e-02 -4.4111125485440668e-02 0.0000000000000000e+00  1.5127187567977724e-02 -4.4514717670357501e-02 0.0000000000000000e+00  1.5187134964429173e-02 -4.4911383331860975e-02 0.0000000000000000e+00  1.5293172990960328e-02 -4.5299607650591309e-02 0.0000000000000000e+00  1.5453990247735449e-02 -4.5685530517521673e-02 0.0000000000000000e+00  1.5678177571563194e-02 -4.6086291746103819e-02 0.0000000000000000e+00  1.5964431343944711e-02 -4.6527000454808329e-02 0.0000000000000000e+00  1.6304792886154839e-02 -4.7025634402777107e-02 0.0000000000000000e+00  1.6683865070788385e-02 -4.7591508699390522e-02 0.0000000000000000e+00  1.7091500435896068e-02 -4.8222166625177747e-02 0.0000000000000000e+00  1.7525800606669837e-02 -4.8911228187203615e-02 0.0000000000000000e+00  1.7997200483124084e-02 -4.9653321970441651e-02 0.0000000000000000e+00  1.8526968216820025e-02 -5.0450345301589039e-02 0.0000000000000000e+00  1.9140078116262220e-02 -5.1312953256244132e-02 0.0000000000000000e+00  1.9850838917272840e-02 -5.2256604677228022e-02 0.0000000000000000e+00  2.0646885951075448e-02 -5.3290447407350373e-02 0.0000000000000000e+00  2.2255885089689523e-02 -5.5543726848576655e-02 0.0000000000000000e+00  2.2926207938344385e-02 -5.6655557789519112e-02 0.0000000000000000e+00  2.3462021504899070e-02 -5.7691709468304597e-02 0.0000000000000000e+00  2.3873427679467180e-02 -5.8619339091976051e-02 0.0000000000000000e+00  2.4186923240706031e-02 -5.9435432540377142e-02 0.0000000000000000e+00  2.4426676019767734e-02 -6.0153588563668627e-02 0.0000000000000000e+00  2.4609982821829739e-02 -6.0789370535210323e-02 0.0000000000000000e+00  2.4747547191188171e-02 -6.1358496995348621e-02 0.0000000000000000e+00  2.4845138879960347e-02 -6.1873031430460884e-02 0.0000000000000000e+00  2.4907019740044483e-02 -6.2340181777373216e-02 0.0000000000000000e+00  2.4936071088253429e-02 -6.2763444110935443e-02 0.0000000000000000e+00  2.4935923778609842e-02 -6.3141475324667198e-02 0.0000000000000000e+00  2.4913321672429028e-02 -6.3471048839340932e-02 0.0000000000000000e+00  2.4876248498469658e-02 -6.3748237621761114e-02 0.0000000000000000e+00  2.4842038201903480e-02 -6.3974579899903850e-02 0.0000000000000000e+00  2.3302427252080721e-02 -6.5644232712346068e-02 0.0000000000000000e+00  2.3477152235769294e-02 -6.5429699176500877e-02 0.0000000000000000e+00  2.3631544840444000e-02 -6.5216112845975727e-02 0.0000000000000000e+00  2.3762850111125861e-02 -6.5010308331753905e-02 0.0000000000000000e+00  2.3872233624175607e-02 -6.4818621387061820e-02 0.0000000000000000e+00  2.3963329102169396e-02 -6.4645958311982096e-02 0.0000000000000000e+00  2.4041340892056898e-02 -6.4496285657792807e-02 0.0000000000000000e+00  2.4112626084262758e-02 -6.4372735827546324e-02 0.0000000000000000e+00  2.4184543246379014e-02 -6.4277571033143660e-02 0.0000000000000000e+00  2.4265239869835278e-02 -6.4211834216843733e-02 0.0000000000000000e+00  2.4363890869910639e-02 -6.4175099596944854e-02 0.0000000000000000e+00  2.4489453343479586e-02 -6.4162810891581684e-02 0.0000000000000000e+00  2.4647346015378099e-02 -6.4166337771929108e-02 0.0000000000000000e+00  4.9895174863248015e-02 -1.3575063500885012e-01 0.0000000000000000e+00  4.9803073586908095e-02 -1.3409290152756520e-01 0.0000000000000000e+00  4.9704448673755522e-02 -1.3241790830425745e-01 0.0000000000000000e+00  4.9594670870798295e-02 -1.3071679980992371e-01 0.0000000000000000e+00  4.9467861727368057e-02 -1.2898631595791499e-01 0.0000000000000000e+00  4.9320112992842224e-02 -1.2722729391089840e-01 0.0000000000000000e+00  4.9149196103709783e-02 -1.2544270482694483e-01 0.0000000000000000e+00  4.8954035919846477e-02 -1.2363706173474116e-01 0.0000000000000000e+00  4.8735410943487600e-02 -1.2181555808602942e-01 0.0000000000000000e+00  4.8494982260437955e-02 -1.1998347315141272e-01 0.0000000000000000e+00  4.8235200626507421e-02 -1.1814579237248955e-01 0.0000000000000000e+00  4.7958795770595794e-02 -1.1630722553757573e-01 0.0000000000000000e+00  4.7668588026573283e-02 -1.1447206864008995e-01 0.0000000000000000e+00  4.7367063066495893e-02 -1.1264425333663786e-01 0.0000000000000000e+00  4.7056121562324818e-02 -1.1082757447636153e-01 0.0000000000000000e+00  4.6736871335710826e-02 -1.0902601819442639e-01 0.0000000000000000e+00  4.6409840548041162e-02 -1.0724387541635708e-01 0.0000000000000000e+00  4.6074396278310628e-02 -1.0548658519595139e-01 0.0000000000000000e+00  4.5729454538008397e-02 -1.0376054094082471e-01 0.0000000000000000e+00  4.5373249750438105e-02 -1.0207398722724687e-01 0.0000000000000000e+00  4.5003635116925907e-02 -1.0043776634144806e-01 0.0000000000000000e+00  4.4618235025350839e-02 -9.8866996083504244e-02 0.0000000000000000e+00  4.4214694975885677e-02 -9.7387446924291132e-02 0.0000000000000000e+00  4.3802313250585409e-02 -9.6049554589292499e-02 0.0000000000000000e+00  4.3397428891215103e-02 -9.4823467122294780e-02 0.0000000000000000e+00  4.2999979939304642e-02 -9.3676093254920864e-02 0.0000000000000000e+00  4.2608444810676528e-02 -9.2594230584147702e-02 0.0000000000000000e+00  4.2222368818979054e-02 -9.1568831876069706e-02 0.0000000000000000e+00  4.1841519935409181e-02 -9.0593317328585388e-02 0.0000000000000000e+00  4.1466374651231326e-02 -8.9662465050821330e-02 0.0000000000000000e+00  4.1097728813563814e-02 -8.8771701996544772e-02 0.0000000000000000e+00  4.0736807589304085e-02 -8.7916809150883235e-02 0.0000000000000000e+00  4.0385107974849344e-02 -8.7093660155604657e-02 0.0000000000000000e+00  4.0044142394875547e-02 -8.6298225261551759e-02 0.0000000000000000e+00  3.9715572337677647e-02 -8.5526274755875431e-02 0.0000000000000000e+00  3.9400790976660188e-02 -8.4773593371255465e-02 0.0000000000000000e+00  3.9100963408866291e-02 -8.4036032570794172e-02 0.00000000000000