<?xml version="1.0"?>
<VTKFile type="UnstructuredGrid"  version="0.1"  >
<UnstructuredGrid>
<Piece  NumberOfPoints="12853" NumberOfCells="23493">
<Points>
<DataArray  type="Float64"  NumberOfComponents="3"  format="ascii">-3.187178156719634e-14 1.7 0  0 0 0  1.3 3 0  -3.185690647650846e-14 4.300000000000001 0  -3.187178156719634e-14 4.699999999999999 0  1.3 6 0  -3.185690647650846e-14 7.300000000000001 0  -3.187178156719634e-14 7.699999999999999 0  1.3 9 0  -3.185690647650846e-14 10.3 0  -3.187178156719634e-14 10.7 0  1.3 12 0  -3.185690647650846e-14 13.3 0  -3.187178156719634e-14 13.7 0  1.3 15 0  -3.185690647650846e-14 16.3 0  0 18 0  18 18 0  17.99999999999997 16.3 0  17.99999999999997 13.7 0  17.99999999999997 13.3 0  17.99999999999997 10.7 0  17.99999999999997 10.3 0  17.99999999999997 7.7 0  17.99999999999997 7.3 0  17.99999999999997 4.7 0  17.99999999999997 4.3 0  17.99999999999997 1.7 0  18 0 0  4.3 3 0  7.3 3 0  10.3 3 0  4.3 6 0  7.3 6 0  10.3 6 0  13.3 3 0  16.3 3 0  13.3 6 0  16.3 6 0  4.3 9 0  4.3 12 0  7.3 9 0  10.3 9 0  7.3 12 0  10.3 12 0  4.3 15 0  7.3 15 0  10.3 15 0  13.3 9 0  13.3 12 0  16.3 9 0  16.3 12 0  13.3 15 0  16.3 15 0  0 1.578571428571429 0  0 1.457142857142856 0  0 1.335714285714285 0  0 1.214285714285712 0  0 1.092857142857142 0  0 0.9714285714285715 0  0 0.8499999999999979 0  0 0.7285714285714278 0  0 0.6071428571428577 0  0 0.485714285714284 0  0 0.3642857142857139 0  0 0.2428571428571438 0  0 0.1214285714285701 0  0.1274222824284281 1.706259855326144 0  0.2536174186209668 1.7249791354758 0  0.3773700804308007 1.755977563548128 0  0.497488462074617 1.798956607735327 0  0.6128157578737968 1.853502356347138 0  0.7222413029254824 1.919089504006691 0  0.8247112694127393 1.995086410628442 0  0.9192388155425116 2.080761184457488 0  1.004913589371558 2.17528873058726 0  1.080910495993309 2.277758697074517 0  1.146497643652861 2.387184242126203 0  1.201043392264673 2.502511537925383 0  1.244022436451871 2.622629919569199 0  1.275020864524199 2.746382581379033 0  1.293740144673856 2.872577717571571 0  1.293740144673856 3.127422282428428 0  1.2750208645242 3.253617418620966 0  1.244022436451872 3.3773700804308 0  1.201043392264673 3.497488462074616 0  1.146497643652862 3.612815757873796 0  1.08091049599331 3.722241302925481 0  1.00491358937156 3.824711269412738 0  0.9192388155425134 3.91923881554251 0  0.8247112694127412 4.004913589371556 0  0.7222413029254846 4.080910495993308 0  0.6128157578737984 4.146497643652861 0  0.4974884620746181 4.201043392264673 0  0.3773700804308024 4.244022436451871 0  0.2536174186209674 4.275020864524199 0  0.127422282428429 4.293740144673856 0  0 4.6 0  0 4.5 0  0 4.4 0  0.1274222824284281 4.706259855326143 0  0.2536174186209668 4.724979135475801 0  0.3773700804308007 4.755977563548129 0  0.497488462074617 4.798956607735327 0  0.6128157578737968 4.853502356347138 0  0.7222413029254824 4.919089504006691 0  0.8247112694127393 4.995086410628442 0  0.9192388155425116 5.080761184457488 0  1.004913589371558 5.17528873058726 0  1.080910495993309 5.277758697074518 0  1.146497643652861 5.387184242126203 0  1.201043392264673 5.502511537925383 0  1.244022436451871 5.622629919569198 0  1.275020864524199 5.746382581379033 0  1.293740144673856 5.872577717571572 0  1.293740144673856 6.127422282428428 0  1.2750208645242 6.253617418620967 0  1.244022436451872 6.377370080430801 0  1.201043392264673 6.497488462074616 0  1.146497643652862 6.612815757873795 0  1.08091049599331 6.722241302925481 0  1.00491358937156 6.824711269412737 0  0.9192388155425134 6.91923881554251 0  0.8247112694127412 7.004913589371556 0  0.7222413029254846 7.080910495993308 0  0.6128157578737984 7.146497643652861 0  0.4974884620746181 7.201043392264673 0  0.3773700804308024 7.244022436451871 0  0.2536174186209674 7.275020864524199 0  0.127422282428429 7.293740144673856 0  0 7.6 0  0 7.5 0  0 7.4 0  0.1274222824284281 7.706259855326143 0  0.2536174186209668 7.724979135475801 0  0.3773700804308007 7.755977563548129 0  0.497488462074617 7.798956607735327 0  0.6128157578737968 7.853502356347138 0  0.7222413029254824 7.919089504006691 0  0.8247112694127393 7.995086410628442 0  0.9192388155425116 8.080761184457488 0  1.004913589371558 8.17528873058726 0  1.080910495993309 8.277758697074518 0  1.146497643652861 8.387184242126203 0  1.201043392264673 8.502511537925383 0  1.244022436451871 8.622629919569199 0  1.275020864524199 8.746382581379033 0  1.293740144673856 8.872577717571572 0  1.293740144673856 9.127422282428428 0  1.2750208645242 9.253617418620966 0  1.244022436451872 9.377370080430801 0  1.201043392264673 9.497488462074616 0  1.146497643652862 9.612815757873795 0  1.08091049599331 9.722241302925481 0  1.00491358937156 9.824711269412738 0  0.9192388155425134 9.91923881554251 0  0.8247112694127412 10.00491358937156 0  0.7222413029254846 10.08091049599331 0  0.6128157578737984 10.14649764365286 0  0.4974884620746181 10.20104339226467 0  0.3773700804308024 10.24402243645187 0  0.2536174186209674 10.2750208645242 0  0.127422282428429 10.29374014467386 0  0 10.6 0  0 10.5 0  0 10.4 0  0.1274222824284281 10.70625985532614 0  0.2536174186209668 10.7249791354758 0  0.3773700804308007 10.75597756354813 0  0.497488462074617 10.79895660773533 0  0.6128157578737968 10.85350235634714 0  0.7222413029254824 10.91908950400669 0  0.8247112694127393 10.99508641062844 0  0.9192388155425116 11.08076118445749 0  1.004913589371558 11.17528873058726 0  1.080910495993309 11.27775869707452 0  1.146497643652861 11.3871842421262 0  1.201043392264673 11.50251153792538 0  1.244022436451871 11.6226299195692 0  1.275020864524199 11.74638258137903 0  1.293740144673856 11.87257771757157 0  1.293740144673856 12.12742228242843 0  1.2750208645242 12.25361741862097 0  1.244022436451872 12.3773700804308 0  1.201043392264673 12.49748846207462 0  1.146497643652862 12.6128157578738 0  1.08091049599331 12.72224130292548 0  1.00491358937156 12.82471126941274 0  0.9192388155425134 12.91923881554251 0  0.8247112694127412 13.00491358937156 0  0.7222413029254846 13.08091049599331 0  0.6128157578737984 13.14649764365286 0  0.4974884620746181 13.20104339226467 0  0.3773700804308024 13.24402243645187 0  0.2536174186209674 13.2750208645242 0  0.127422282428429 13.29374014467386 0  0 13.6 0  0 13.5 0  0 13.4 0  0.1274222824284281 13.70625985532614 0  0.2536174186209668 13.7249791354758 0  0.3773700804308007 13.75597756354813 0  0.497488462074617 13.79895660773533 0  0.6128157578737968 13.85350235634714 0  0.7222413029254824 13.91908950400669 0  0.8247112694127393 13.99508641062844 0  0.9192388155425116 14.08076118445749 0  1.004913589371558 14.17528873058726 0  1.080910495993309 14.27775869707452 0  1.146497643652861 14.3871842421262 0  1.201043392264673 14.50251153792538 0  1.244022436451871 14.6226299195692 0  1.275020864524199 14.74638258137903 0  1.293740144673856 14.87257771757157 0  1.293740144673856 15.12742228242843 0  1.2750208645242 15.25361741862097 0  1.244022436451872 15.3773700804308 0  1.201043392264673 15.49748846207462 0  1.146497643652862 15.6128157578738 0  1.08091049599331 15.72224130292548 0  1.00491358937156 15.82471126941274 0  0.9192388155425134 15.91923881554251 0  0.8247112694127412 16.00491358937156 0  0.7222413029254846 16.08091049599331 0  0.6128157578737984 16.14649764365286 0  0.4974884620746181 16.20104339226467 0  0.3773700804308024 16.24402243645187 0  0.2536174186209674 16.2750208645242 0  0.127422282428429 16.29374014467385 0  0 17.87857142857143 0  0 17.75714285714286 0  0 17.63571428571429 0  0 17.51428571428571 0  0 17.39285714285714 0  0 17.27142857142857 0  0 17.15 0  0 17.02857142857143 0  0 16.90714285714286 0  0 16.78571428571428 0  0 16.66428571428571 0  0 16.54285714285714 0  0 16.42142857142857 0  17.8705035971223 18 0  17.7410071942446 18 0  17.61151079136691 18 0  17.48201438848921 18 0  17.35251798561151 18 0  17.22302158273381 18 0  17.09352517985612 18 0  16.96402877697842 18 0  16.83453237410072 18 0  16.70503597122302 18 0  16.57553956834532 18 0  16.44604316546762 18 0  16.31654676258993 18 0  16.18705035971223 18 0  16.05755395683453 18 0  15.92805755395683 18 0  15.79856115107913 18 0  15.66906474820144 18 0  15.53956834532374 18 0  15.41007194244604 18 0  15.28057553956834 18 0  15.15107913669064 18 0  15.02158273381295 18 0  14.89208633093525 18 0  14.76258992805755 18 0  14.63309352517985 18 0  14.50359712230215 18 0  14.37410071942446 18 0  14.24460431654676 18 0  14.11510791366906 18 0  13.98561151079136 18 0  13.85611510791366 18 0  13.72661870503597 18 0  13.59712230215827 18 0  13.46762589928057 18 0  13.33812949640287 18 0  13.20863309352517 18 0  13.07913669064748 18 0  12.94964028776977 18 0  12.82014388489208 18 0  12.69064748201438 18 0  12.56115107913668 18 0  12.43165467625898 18 0  12.30215827338128 18 0  12.17266187050359 18 0  12.04316546762589 18 0  11.91366906474819 18 0  11.78417266187049 18 0  11.65467625899279 18 0  11.52517985611509 18 0  11.3956834532374 18 0  11.2661870503597 18 0  11.136690647482 18 0  11.0071942446043 18 0  10.8776978417266 18 0  10.7482014388489 18 0  10.6187050359712 18 0  10.48920863309351 18 0  10.35971223021581 18 0  10.23021582733811 18 0  10.10071942446041 18 0  9.971223021582714 18 0  9.841726618705016 18 0  9.712230215827317 18 0  9.582733812949618 18 0  9.453237410071921 18 0  9.323741007194224 18 0  9.194244604316525 18 0  9.064748201438828 18 0  8.935251798561131 18 0  8.805755395683434 18 0  8.676258992805735 18 0  8.546762589928038 18 0  8.417266187050341 18 0  8.287769784172642 18 0  8.158273381294947 18 0  8.028776978417248 18 0  7.899280575539549 18 0  7.769784172661854 18 0  7.640287769784155 18 0  7.510791366906458 18 0  7.381294964028761 18 0  7.251798561151062 18 0  7.122302158273365 18 0  6.992805755395668 18 0  6.86330935251797 18 0  6.733812949640273 18 0  6.604316546762576 18 0  6.474820143884878 18 0  6.34532374100718 18 0  6.215827338129483 18 0  6.086330935251786 18 0  5.956834532374087 18 0  5.827338129496392 18 0  5.697
[...]
<PointData  Vectors="f_21"> 
<DataArray  type="Float64"  Name="f_21"  NumberOfComponents="3" format="ascii">-3.4412999858927725e-03 -2.5687156634101702e-03 0.0000000000000000e+00  0.0000000000000000e+00 0.0000000000000000e+00 0.0000000000000000e+00  -5.9194863175891666e-03 -2.2574835085331098e-02 0.0000000000000000e+00  -8.1500492876670043e-03 -3.9148335367625457e-02 0.0000000000000000e+00  -8.0156067412349829e-03 -3.9147930200607702e-02 0.0000000000000000e+00  -4.0889643363018376e-03 -5.6154870218523549e-02 0.0000000000000000e+00  2.9917713662542559e-03 -6.6600030909633581e-02 0.0000000000000000e+00  5.2355252631601876e-03 -6.6605734109504183e-02 0.0000000000000000e+00  1.6375459118347781e-02 -9.1182312703528140e-02 0.0000000000000000e+00  2.6233804043718310e-02 -1.0171775098570905e-01 0.0000000000000000e+00  2.8872418405194514e-02 -1.0172582577353308e-01 0.0000000000000000e+00  4.3066110049682783e-02 -1.2769070251589681e-01 0.0000000000000000e+00  6.0970837816945976e-02 -1.3137056364078986e-01 0.0000000000000000e+00  6.5999474794921784e-02 -1.3140172939436626e-01 0.0000000000000000e+00  9.0184334069558794e-02 -1.6708046266366530e-01 0.0000000000000000e+00  1.0253016794944003e-01 -1.9790097418062394e-01 0.0000000000000000e+00  9.7909870851090250e-02 -2.0324142831076669e-01 0.0000000000000000e+00  1.8500411032993205e-01 -4.4941272955578904e-01 0.0000000000000000e+00  1.0286488200404992e-01 -4.4169580243383294e-01 0.0000000000000000e+00  8.5680251001840707e-02 -2.8646872449762040e-01 0.0000000000000000e+00  8.5640309488301189e-02 -2.8646900980687490e-01 0.0000000000000000e+00  6.7691558973686519e-02 -2.4110893470056083e-01 0.0000000000000000e+00  6.0730389280511818e-02 -2.4104976569416045e-01 0.0000000000000000e+00  4.1499967065769784e-02 -1.5158694418527036e-01 0.0000000000000000e+00  3.9825836119872907e-02 -1.5158451322633174e-01 0.0000000000000000e+00  2.6637332095577199e-02 -8.9281475060153298e-02 0.0000000000000000e+00  2.3381720555820239e-02 -8.9269283291024626e-02 0.0000000000000000e+00  5.9833597449973786e-03 -4.7095920723792765e-03 0.0000000000000000e+00  0.0000000000000000e+00 0.0000000000000000e+00 0.0000000000000000e+00  -3.3420069106177008e-03 -2.3090335664081356e-02 0.0000000000000000e+00  -1.1346091477807212e-03 -2.3319478751133868e-02 0.0000000000000000e+00  -8.4133140971106852e-04 -2.6086344616959439e-02 0.0000000000000000e+00  3.2206528588063273e-03 -5.8849804330182033e-02 0.0000000000000000e+00  6.2701378060120534e-03 -6.0842482249207727e-02 0.0000000000000000e+00  1.2036000489033302e-02 -6.8899016160494680e-02 0.0000000000000000e+00  1.7735807926814412e-03 -3.1591660430555307e-02 0.0000000000000000e+00  4.3205547517623476e-03 -4.1395470882909166e-02 0.0000000000000000e+00  1.3370147696206359e-02 -8.5926846778122193e-02 0.0000000000000000e+00  2.7340332142941001e-02 -1.1037042083612879e-01 0.0000000000000000e+00  2.0244659219849883e-02 -9.5530551094544933e-02 0.0000000000000000e+00  5.1569378199599669e-02 -1.3213099891856683e-01 0.0000000000000000e+00  2.6873703633434970e-02 -9.8198401776616331e-02 0.0000000000000000e+00  2.7972711300234286e-02 -1.1165972273962434e-01 0.0000000000000000e+00  5.2235964276013541e-02 -1.3486325954959108e-01 0.0000000000000000e+00  5.8672303929667650e-02 -1.5342028741916156e-01 0.0000000000000000e+00  9.1799131111218499e-02 -1.6880022693980015e-01 0.0000000000000000e+00  9.6160280925438393e-02 -1.6954133461678420e-01 0.0000000000000000e+00  9.1368332272628916e-02 -1.9269064616386253e-01 0.0000000000000000e+00  3.8459256253446678e-02 -1.3848499025620592e-01 0.0000000000000000e+00  5.3004163107137153e-02 -1.9124743313561227e-01 0.0000000000000000e+00  3.6089603252709580e-02 -1.7923860396296298e-01 0.0000000000000000e+00  7.7470278937214462e-02 -2.4991296683750736e-01 0.0000000000000000e+00  9.5273410543491824e-02 -2.3878223450463107e-01 0.0000000000000000e+00  6.4339042487010875e-02 -3.2566700769632406e-01 0.0000000000000000e+00  -3.5483943751512658e-03 -2.5746375248840029e-03 0.0000000000000000e+00  -3.6271215060968841e-03 -2.5966541843393640e-03 0.0000000000000000e+00  -3.6459244614790048e-03 -2.6148300698687313e-03 0.0000000000000000e+00  -3.5984787598337992e-03 -2.6130046063287380e-03 0.0000000000000000e+00  -3.4881741257326319e-03 -2.5801306743311486e-03 0.0000000000000000e+00  -3.3211905861836124e-03 -2.5112838948818795e-03 0.0000000000000000e+00  -3.1029849484892234e-03 -2.4048387010945898e-03 0.0000000000000000e+00  -2.8376619509327037e-03 -2.2596292259273879e-03 0.0000000000000000e+00  -2.5272240628912536e-03 -2.0742508835265663e-03 0.0000000000000000e+00  -2.1714892277258980e-03 -1.8453769543310672e-03 0.0000000000000000e+00  -1.7676004977290403e-03 -1.5662463506652890e-03 0.0000000000000000e+00  -1.3085106980440019e-03 -1.2221145409899105e-03 0.0000000000000000e+00  -7.6532995693098728e-04 -7.7783785208266384e-04 0.0000000000000000e+00  -3.4280094094661568e-03 -2.6772846089996851e-03 0.0000000000000000e+00  -3.3793625565304909e-03 -2.8262300703909018e-03 0.0000000000000000e+00  -3.3088267155333751e-03 -3.0739958181753239e-03 0.0000000000000000e+00  -3.2431182971582543e-03 -3.4555213423705490e-03 0.0000000000000000e+00  -3.1962643501005721e-03 -3.9874247251886104e-03 0.0000000000000000e+00  -3.1855432521317620e-03 -4.6815841053657629e-03 0.0000000000000000e+00  -3.2236477812239085e-03 -5.5442289032024477e-03 0.0000000000000000e+00  -3.3179129930698764e-03 -6.5823887097425111e-03 0.0000000000000000e+00  -3.4751271817691017e-03 -7.8042609006487773e-03 0.0000000000000000e+00  -3.6950389731515015e-03 -9.2229752149462513e-03 0.0000000000000000e+00  -3.9744022677313424e-03 -1.0857922478215742e-02 0.0000000000000000e+00  -4.3051727998275249e-03 -1.2730635705685056e-02 0.0000000000000000e+00  -4.6772871875624357e-03 -1.4864514127229618e-02 0.0000000000000000e+00  -5.0818624706723235e-03 -1.7258050643571016e-02 0.0000000000000000e+00  -5.5054466675430814e-03 -1.9857007964038428e-02 0.0000000000000000e+00  -6.2737613680564205e-03 -2.5254939595642796e-02 0.0000000000000000e+00  -6.5320417472545019e-03 -2.7776524044461268e-02 0.0000000000000000e+00  -6.6828701697003012e-03 -3.0071991929116467e-02 0.0000000000000000e+00  -6.7532828256220466e-03 -3.2116620322709469e-02 0.0000000000000000e+00  -6.8021539501723462e-03 -3.3917178580007298e-02 0.0000000000000000e+00  -6.8847988085793052e-03 -3.5477117903168216e-02 0.0000000000000000e+00  -7.0347561496879683e-03 -3.6783955123130353e-02 0.0000000000000000e+00  -7.2506458626435764e-03 -3.7817258931111965e-02 0.0000000000000000e+00  -7.5072788767663792e-03 -3.8563266840227498e-02 0.0000000000000000e+00  -7.7583044673914742e-03 -3.9030235191978957e-02 0.0000000000000000e+00  -7.9592278941570897e-03 -3.9259441314602468e-02 0.0000000000000000e+00  -8.0848489564512172e-03 -3.9321868755477982e-02 0.0000000000000000e+00  -8.1419475956881343e-03 -3.9295710105050050e-02 0.0000000000000000e+00  -8.1551458034355255e-03 -3.9244488806972504e-02 0.0000000000000000e+00  -8.1525208968455647e-03 -3.9194138620994849e-02 0.0000000000000000e+00  -8.0478454595956112e-03 -3.9147867501378192e-02 0.0000000000000000e+00  -8.0811408851747674e-03 -3.9148136250123658e-02 0.0000000000000000e+00  -8.1150596290914794e-03 -3.9148401004752212e-02 0.0000000000000000e+00  -8.0138558793735257e-03 -3.9187788565354556e-02 0.0000000000000000e+00  -8.0039175562286718e-03 -3.9222269965557256e-02 0.0000000000000000e+00  -7.9697651004677142e-03 -3.9253766075476156e-02 0.0000000000000000e+00  -7.8846183953348147e-03 -3.9309439635330720e-02 0.0000000000000000e+00  -7.7208283051652966e-03 -3.9447854353820935e-02 0.0000000000000000e+00  -7.4785110993437209e-03 -3.9751288073029425e-02 0.0000000000000000e+00  -7.1767888896556043e-03 -4.0283628476848014e-02 0.0000000000000000e+00  -6.8628703245307478e-03 -4.1087551396805040e-02 0.0000000000000000e+00  -6.5789909324729338e-03 -4.2167564679461908e-02 0.0000000000000000e+00  -6.3497754575019714e-03 -4.3507294240565146e-02 0.0000000000000000e+00  -6.1697038404986606e-03 -4.5084608121897733e-02 0.0000000000000000e+00  -5.9959236707020870e-03 -4.6880922621376421e-02 0.0000000000000000e+00  -5.7621791574336383e-03 -4.8900630274038591e-02 0.0000000000000000e+00  -5.3910373253122498e-03 -5.1140067000387847e-02 0.0000000000000000e+00  -4.8340712454218822e-03 -5.3583704808698153e-02 0.0000000000000000e+00  -3.1992864427441911e-03 -5.8734143128466462e-02 0.0000000000000000e+00  -2.2360341868243295e-03 -6.1179020144203865e-02 0.0000000000000000e+00  -1.2657407017164755e-03 -6.3396562920053967e-02 0.0000000000000000e+00  -3.5188280441120527e-04 -6.5329917466430729e-02 0.0000000000000000e+00  4.4935389842471341e-04 -6.6971267126125056e-02 0.0000000000000000e+00  1.0940117969552052e-03 -6.8307465821758631e-02 0.0000000000000000e+00  1.5667270663423959e-03 -6.9318324981787000e-02 0.0000000000000000e+00  1.8863254356250947e-03 -6.9982770808125955e-02 0.0000000000000000e+00  2.0911872433574201e-03 -7.0290168232653549e-02 0.0000000000000000e+00  2.2378053239357838e-03 -7.0255263296066975e-02 0.0000000000000000e+00  2.3762378521114693e-03 -6.9928897906803594e-02 0.0000000000000000e+00  2.5332758524537775e-03 -6.9393022731148488e-02 0.0000000000000000e+00  2.7006941785690654e-03 -6.8736685868585667e-02 0.0000000000000000e+00  2.8513478078809797e-03 -6.8033555614334912e-02 0.0000000000000000e+00  2.9542912158878752e-03 -6.7317774653210871e-02 0.0000000000000000e+00  4.6759638646740537e-03 -6.6604118868281645e-02 0.0000000000000000e+00  4.1153141903936524e-03 -6.6602895027701725e-02 0.0000000000000000e+00  3.5540926727018231e-03 -6.6601663874565953e-02 0.0000000000000000e+00  5.2683209787535053e-03 -6.7317514654660099e-02 0.0000000000000000e+00  5.3754393501542078e-03 -6.8017540049351496e-02 0.0000000000000000e+00  5.5727520803141384e-03 -6.8702549583895031e-02 0.0000000000000000e+00  5.8859740866275771e-03 -6.9395586309492080e-02 0.0000000000000000e+00  6.3400514223746077e-03 -7.0152030829714537e-02 0.0000000000000000e+00  6.9296364809485972e-03 -7.1050020644078629e-02 0.0000000000000000e+00  7.6300374914959924e-03 -7.2146588712278747e-02 0.0000000000000000e+00  8.3901427461727587e-03 -7.3475568120451085e-02 0.0000000000000000e+00  9.1676716770442094e-03 -7.5033262716488441e-02 0.0000000000000000e+00  9.9411623398219032e-03 -7.6798472597380027e-02 0.0000000000000000e+00  1.0720602231296245e-02 -7.8748872992470131e-02 0.0000000000000000e+00  1.1550305787117266e-02 -8.0872089448661449e-02 0.0000000000000000e+00  1.2492846483685049e-02 -8.3180335400204433e-02 0.0000000000000000e+00  1.3608621624528578e-02 -8.5682193210692245e-02 0.0000000000000000e+00  1.4917406378336660e-02 -8.8372453206370841e-02 0.0000000000000000e+00  1.7891410188793713e-02 -9.3990911233708008e-02 0.0000000000000000e+00  1.9364654674572442e-02 -9.6636054335370869e-02 0.0000000000000000e+00  2.0731035672551135e-02 -9.9024972726359337e-02 0.0000000000000000e+00  2.1946729076826786e-02 -1.0109475503854157e-01 0.0000000000000000e+00  2.2971861286993051e-02 -1.0282914444993689e-01 0.0000000000000000e+00  2.3783271412660421e-02 -1.0422452420623507e-01 0.0000000000000000e+00  2.4380515422967288e-02 -1.0525837502484423e-01 0.0000000000000000e+00  2.4792895211448278e-02 -1.0591073229066425e-01 0.0000000000000000e+00  2.5073095992874612e-02 -1.0617357577024092e-01 0.0000000000000000e+00  2.5282269542824160e-02 -1.0606670518107778e-01 0.0000000000000000e+00  2.5473970081914633e-02 -1.0564553480923811e-01 0.0000000000000000e+00  2.5679281017883738e-02 -1.0500146921647108e-01 0.0000000000000000e+00  2.5886385311399238e-02 -1.0422790545752579e-01 0.0000000000000000e+00  2.6067313938784878e-02 -1.0340194921888657e-01 0.0000000000000000e+00  2.6189369094883664e-02 -1.0256136006021693e-01 0.0000000000000000e+00  2.8214193204221055e-02 -1.0172361036199878e-01 0.0000000000000000e+00  2.7554837758836631e-02 -1.0172180500175872e-01 0.0000000000000000e+00  2.6894887263593976e-02 -1.0171998848350357e-01 0.0000000000000000e+00  2.8910621039809653e-02 -1.0256331177722015e-01 0.0000000000000000e+00  2.9035653238064750e-02 -1.0338773642641823e-01 0.0000000000000000e+00  2.9263784531059933e-02 -1.0419476367576767e-01 0.0000000000000000e+00  2.9621528803152834e-02 -1.0500750297601502e-01 0.0000000000000000e+00  3.0134496899334413e-02 -1.0588206828823660e-01 0.0000000000000000e+00  3.0797122489348228e-02 -1.0689805011866917e-01 0.0000000000000000e+00  3.1582771224882164e-02 -1.0811264833816336e-01 0.0000000000000000e+00  3.2440281247436337e-02 -1.0955561356975874e-01 0.0000000000000000e+00  3.3332264757113247e-02 -1.1121888626129624e-01 0.0000000000000000e+00  3.4244307090845201e-02 -1.1307859627563706e-01 0.0000000000000000e+00  3.5200134640886643e-02 -1.1510781193049567e-01 0.0000000000000000e+00  3.6261626153392457e-02 -1.1729543419987161e-01 0.0000000000000000e+00  3.7518021864374369e-02 -1.1964719998272412e-01 0.0000000000000000e+00  3.9055983796387764e-02 -1.2217674247678853e-01 0.0000000000000000e+00  4.0919223287145971e-02 -1.2487870415529750e-01 0.0000000000000000e+00  4.5374359183857030e-02 -1.3049172851689564e-01 0.0000000000000000e+00  4.7688860824579835e-02 -1.3310851185808328e-01 0.0000000000000000e+00  4.9894410377941054e-02 -1.3543285093123084e-01 0.0000000000000000e+00  5.1909700257785435e-02 -1.3738503369170496e-01 0.0000000000000000e+00  5.3672806188553850e-02 -1.3893485264548661e-01 0.0000000000000000e+00  5.5152309088777773e-02 -1.4006886229179802e-01 0.0000000000000000e+00  5.6348542898441399e-02 -1.4075598679117376e-01 0.0000000000000000e+00  5.7297412462730131e-02 -1.4097439830879049e-01 0.0000000000000000e+00  5.8059034251947424e-02 -1.4072064491925385e-01 0.0000000000000000e+00  5.8698869891646473e-02 -1.4002538627912636e-01 0.0000000000000000e+00  5.9270142833810539e-02 -1.3895853051167958e-01 0.0000000000000000e+00  5.9799189040089004e-02 -1.3762646523927727e-01 0.0000000000000000e+00  6.0267238889816561e-02 -1.3613467789901021e-01 0.0000000000000000e+00  6.0640252833460112e-02 -1.3456941128895877e-01 0.0000000000000000e+00  6.0881621798119019e-02 -1.3297533231126127e-01 0.0000000000000000e+00  6.4743885089357842e-02 -1.3139378043158262e-01 0.0000000000000000e+00  6.3487093179283166e-02 -1.3138617619318840e-01 0.0000000000000000e+00  6.2229566257418947e-02 -1.3137855536152487e-01 0.0000000000000000e+00  6.6067745818675416e-02 -1.3300076108911915e-01 0.0000000000000000e+00  6.6297273595081196e-02 -1.3457979858231131e-01 0.0000000000000000e+00  6.6703826165303834e-02 -1.3612671398279025e-01 0.0000000000000000e+00  6.7313597980372730e-02 -1.3765745457445422e-01 0.0000000000000000e+00  6.8151939847650181e-02 -1.3922229375440062e-01 0.0000000000000000e+00  6.9213162647872889e-02 -1.4089582100194373e-01 0.0000000000000000e+00  7.0471311663527575e-02 -1.4272989222341598e-01 0.0000000000000000e+00  7.1878951056959142e-02 -1.4474868928590076e-01 0.0000000000000000e+00  7.3407303981928004e-02 -1.4694008091005600e-01 0.0000000000000000e+00  7.5055868536144585e-02 -1.4928081822241143e-01 0.0000000000000000e+00  7.6864863074462983e-02 -1.5175328911136621e-01 0.0000000000000000e+00  7.8909628091713091e-02 -1.5436516175752274e-01 0.0000000000000000e+00  8.1275947637264229e-02 -1.5715633923154909e-01 0.0000000000000000e+00  8.4007989248693571e-02 -1.6018955809321625e-01 0.0000000000000000e+00  8.7049453434026036e-02 -1.6350774031669807e-01 0.0000000000000000e+00  9.3112948462836104e-02 -1.7078260176055723e-01 0.0000000000000000e+00  9.5587607737688457e-02 -1.7438408510649880e-01 0.0000000000000000e+00  9.7533857390449188e-02 -1.7773676859170065e-01 0.0000000000000000e+00  9.9005625246074799e-02 -1.8072441994897248e-01 0.0000000000000000e+00  1.0011426578917987e-01 -1.8333567054508584e-01 0.0000000000000000e+00  1.0095676518089866e-01 -1.8561676540297201e-01 0.0000000000000000e+00  1.0160098384554783e-01 -1.8762057992071687e-01 0.0000000000000000e+00  1.0208813277236931e-01 -1.8940044882910867e-01 0.0000000000000000e+00  1.0244028622475806e-01 -1.9099747841330311e-01 0.0000000000000000e+00  1.0267298408306877e-01 -1.9243660513742133e-01 0.0000000000000000e+00  1.0279608472377436e-01 -1.9373059858206254e-01 0.0000000000000000e+00  1.0282141604654957e-01 -1.9487654663050452e-01 0.0000000000000000e+00  1.0277032660752275e-01 -1.9586541983066821e-01 0.0000000000000000e+00  1.0266786005552593e-01 -1.9668582683994842e-01 0.0000000000000000e+00  1.0256885865805696e-01 -1.9734369088368073e-01 0.0000000000000000e+00  9.8447651398621217e-02 -2.0257491570932001e-01 0.0000000000000000e+00  9.8945847650431837e-02 -2.0189400946835506e-01 0.0000000000000000e+00  9.9377707437254534e-02 -2.0121631312102475e-01 0.0000000000000000e+00  9.9735346848273662e-02 -2.0056356555159544e-01 0.0000000000000000e+00  1.0002292164648935e-01 -1.9995587805743836e-01 0.0000000000000000e+00  1.0025226878369708e-01 -1.9940878205430007e-01 0.0000000000000000e+00  1.0044012873333645e-01 -1.9893481509530081e-01 0.0000000000000000e+00  1.0060685128962468e-01 -1.9854385693198706e-01 0.0000000000000000e+00  1.0077593224080697e-01 -1.9824300035757703e-01 0.0000000000000000e+00  1.0097332993984168e-01 -1.9803546033931177e-01 0.0000000000000000e+00  1.0122821828000918e-01 -1.9791972031882227e-01 0.0000000000000000e+00  1.0156895370965373e-01 -1.9788111956442814e-01 0.0000000000000000e+00  1.0201248233981093e-01 -1.9789211166214243e-01 0.0000000000000000e+00  1.8480993717406113e-01 -4.4332951651808938e-01 0.0000000000000000e+00  1.8459094928198500e-01 -4.3730674133331698e-01 0.0000000000000000e+00  1.8435031233732435e-01 -4.3125245851800131e-01 0.0000000000000000e+00  1.8407143496298572e-01 -4.2512792951442113e-01 0.0000000000000000e+00  1.8373302144259798e-01 -4.1891815938759713e-01 0.0000000000000000e+00  1.8331995393033457e-01 -4.1262424655627039e-01 0.0000000000000000e+00  1.8282279073414159e-01 -4.0625552648902441e-01 0.0000000000000000e+00  1.8223578282594230e-01 -3.9982736432686128e-01 0.0000000000000000e+00  1.8155963048007739e-01 -3.9335808402648831e-01 0.0000000000000000e+00  1.8079822620306929e-01 -3.8686682401698974e-01 0.0000000000000000e+00  1.7995846461793313e-01 -3.8037209427271812e-01 0.0000000000000000e+00  1.7904859443310767e-01 -3.7389184368411554e-01 0.0000000000000000e+00  1.7807768573309454e-01 -3.6744279608267583e-01 0.0000000000000000e+00  1.7705425992697507e-01 -3.6104048333808730e-01 0.0000000000000000e+00  1.7598540030347043e-01 -3.5469983435134311e-01 0.0000000000000000e+00  1.7487628560828103e-01 -3.4843618151817191e-01 0.0000000000000000e+00  1.7373020330336106e-01 -3.4226534394823355e-01 0.0000000000000000e+00  1.7254772100299634e-01 -3.3620641614245383e-01 0.0000000000000000e+00  1.7132764623621452e-01 -3.3028095961599796e-01 0.0000000000000000e+00  1.7006703233015705e-01 -3.2451570274216734e-01 0.0000000000000000e+00  1.6876175764134504e-01 -3.1894496693455054e-01 0.0000000000000000e+00  1.6740693749225635e-01 -3.1361590809172146e-01 0.0000000000000000e+00  1.6599766395290472e-01 -3.0860848404099062e-01 0.0000000000000000e+00  1.6456470671661727e-01 -3.0407980180001143e-01 0.0000000000000000e+00  1.6316047882245097e-01 -2.9993374943428869e-01 0.0000000000000000e+00  1.6178594787612538e-01 -2.9606373346649800e-01 0.0000000000000000e+00  1.6043733183136072e-01 -2.9242554633130335e-01 0.0000000000000000e+00  1.5911375489075233e-01 -2.8898790214153380e-01 0.0000000000000000e+00  1.5781456293895288e-01 -2.8572728951802950e-01 0.0000000000000000e+00  1.5654115209287950e-01 -2.8262469108576327e-01 0.0000000000000000e+00  1.5529552479385489e-01 -2.7966333316361364e-01 0.0000000000000000e+00  1.5408091742479241e-01 -2.7682789426376303e-01 0.0000000000000000e+00  1.5290120290262846e-01 -2.7410365902329786e-01 0.0000000000000000e+00  1.5176046897397091e-01 -2.7147664498948693e-01 0.0000000000000000e+00  1.5066312578719554e-01 -2.6893250930093865e-01 0.0000000000000000e+00  1.4961280841353611e-01 -2.6645726884857407e-01 0.0000000000000000e+00  1.4861271363534204e-01 -2.6403740549346155e-01 0.0000000000000000e+00  1.4766422859