<?xml version="1.0"?>
<VTKFile type="UnstructuredGrid"  version="0.1"  >
<UnstructuredGrid>
<Piece  NumberOfPoints="12853" NumberOfCells="23493">
<Points>
<DataArray  type="Float64"  NumberOfComponents="3"  format="ascii">-3.187178156719634e-14 1.7 0  0 0 0  1.3 3 0  -3.185690647650846e-14 4.300000000000001 0  -3.187178156719634e-14 4.699999999999999 0  1.3 6 0  -3.185690647650846e-14 7.300000000000001 0  -3.187178156719634e-14 7.699999999999999 0  1.3 9 0  -3.185690647650846e-14 10.3 0  -3.187178156719634e-14 10.7 0  1.3 12 0  -3.185690647650846e-14 13.3 0  -3.187178156719634e-14 13.7 0  1.3 15 0  -3.185690647650846e-14 16.3 0  0 18 0  18 18 0  17.99999999999997 16.3 0  17.99999999999997 13.7 0  17.99999999999997 13.3 0  17.99999999999997 10.7 0  17.99999999999997 10.3 0  17.99999999999997 7.7 0  17.99999999999997 7.3 0  17.99999999999997 4.7 0  17.99999999999997 4.3 0  17.99999999999997 1.7 0  18 0 0  4.3 3 0  7.3 3 0  10.3 3 0  4.3 6 0  7.3 6 0  10.3 6 0  13.3 3 0  16.3 3 0  13.3 6 0  16.3 6 0  4.3 9 0  4.3 12 0  7.3 9 0  10.3 9 0  7.3 12 0  10.3 12 0  4.3 15 0  7.3 15 0  10.3 15 0  13.3 9 0  13.3 12 0  16.3 9 0  16.3 12 0  13.3 15 0  16.3 15 0  0 1.578571428571429 0  0 1.457142857142856 0  0 1.335714285714285 0  0 1.214285714285712 0  0 1.092857142857142 0  0 0.9714285714285715 0  0 0.8499999999999979 0  0 0.7285714285714278 0  0 0.6071428571428577 0  0 0.485714285714284 0  0 0.3642857142857139 0  0 0.2428571428571438 0  0 0.1214285714285701 0  0.1274222824284281 1.706259855326144 0  0.2536174186209668 1.7249791354758 0  0.3773700804308007 1.755977563548128 0  0.497488462074617 1.798956607735327 0  0.6128157578737968 1.853502356347138 0  0.7222413029254824 1.919089504006691 0  0.8247112694127393 1.995086410628442 0  0.9192388155425116 2.080761184457488 0  1.004913589371558 2.17528873058726 0  1.080910495993309 2.277758697074517 0  1.146497643652861 2.387184242126203 0  1.201043392264673 2.502511537925383 0  1.244022436451871 2.622629919569199 0  1.275020864524199 2.746382581379033 0  1.293740144673856 2.872577717571571 0  1.293740144673856 3.127422282428428 0  1.2750208645242 3.253617418620966 0  1.244022436451872 3.3773700804308 0  1.201043392264673 3.497488462074616 0  1.146497643652862 3.612815757873796 0  1.08091049599331 3.722241302925481 0  1.00491358937156 3.824711269412738 0  0.9192388155425134 3.91923881554251 0  0.8247112694127412 4.004913589371556 0  0.7222413029254846 4.080910495993308 0  0.6128157578737984 4.146497643652861 0  0.4974884620746181 4.201043392264673 0  0.3773700804308024 4.244022436451871 0  0.2536174186209674 4.275020864524199 0  0.127422282428429 4.293740144673856 0  0 4.6 0  0 4.5 0  0 4.4 0  0.1274222824284281 4.706259855326143 0  0.2536174186209668 4.724979135475801 0  0.3773700804308007 4.755977563548129 0  0.497488462074617 4.798956607735327 0  0.6128157578737968 4.853502356347138 0  0.7222413029254824 4.919089504006691 0  0.8247112694127393 4.995086410628442 0  0.9192388155425116 5.080761184457488 0  1.004913589371558 5.17528873058726 0  1.080910495993309 5.277758697074518 0  1.146497643652861 5.387184242126203 0  1.201043392264673 5.502511537925383 0  1.244022436451871 5.622629919569198 0  1.275020864524199 5.746382581379033 0  1.293740144673856 5.872577717571572 0  1.293740144673856 6.127422282428428 0  1.2750208645242 6.253617418620967 0  1.244022436451872 6.377370080430801 0  1.201043392264673 6.497488462074616 0  1.146497643652862 6.612815757873795 0  1.08091049599331 6.722241302925481 0  1.00491358937156 6.824711269412737 0  0.9192388155425134 6.91923881554251 0  0.8247112694127412 7.004913589371556 0  0.7222413029254846 7.080910495993308 0  0.6128157578737984 7.146497643652861 0  0.4974884620746181 7.201043392264673 0  0.3773700804308024 7.244022436451871 0  0.2536174186209674 7.275020864524199 0  0.127422282428429 7.293740144673856 0  0 7.6 0  0 7.5 0  0 7.4 0  0.1274222824284281 7.706259855326143 0  0.2536174186209668 7.724979135475801 0  0.3773700804308007 7.755977563548129 0  0.497488462074617 7.798956607735327 0  0.6128157578737968 7.853502356347138 0  0.7222413029254824 7.919089504006691 0  0.8247112694127393 7.995086410628442 0  0.9192388155425116 8.080761184457488 0  1.004913589371558 8.17528873058726 0  1.080910495993309 8.277758697074518 0  1.146497643652861 8.387184242126203 0  1.201043392264673 8.502511537925383 0  1.244022436451871 8.622629919569199 0  1.275020864524199 8.746382581379033 0  1.293740144673856 8.872577717571572 0  1.293740144673856 9.127422282428428 0  1.2750208645242 9.253617418620966 0  1.244022436451872 9.377370080430801 0  1.201043392264673 9.497488462074616 0  1.146497643652862 9.612815757873795 0  1.08091049599331 9.722241302925481 0  1.00491358937156 9.824711269412738 0  0.9192388155425134 9.91923881554251 0  0.8247112694127412 10.00491358937156 0  0.7222413029254846 10.08091049599331 0  0.6128157578737984 10.14649764365286 0  0.4974884620746181 10.20104339226467 0  0.3773700804308024 10.24402243645187 0  0.2536174186209674 10.2750208645242 0  0.127422282428429 10.29374014467386 0  0 10.6 0  0 10.5 0  0 10.4 0  0.1274222824284281 10.70625985532614 0  0.2536174186209668 10.7249791354758 0  0.3773700804308007 10.75597756354813 0  0.497488462074617 10.79895660773533 0  0.6128157578737968 10.85350235634714 0  0.7222413029254824 10.91908950400669 0  0.8247112694127393 10.99508641062844 0  0.9192388155425116 11.08076118445749 0  1.004913589371558 11.17528873058726 0  1.080910495993309 11.27775869707452 0  1.146497643652861 11.3871842421262 0  1.201043392264673 11.50251153792538 0  1.244022436451871 11.6226299195692 0  1.275020864524199 11.74638258137903 0  1.293740144673856 11.87257771757157 0  1.293740144673856 12.12742228242843 0  1.2750208645242 12.25361741862097 0  1.244022436451872 12.3773700804308 0  1.201043392264673 12.49748846207462 0  1.146497643652862 12.6128157578738 0  1.08091049599331 12.72224130292548 0  1.00491358937156 12.82471126941274 0  0.9192388155425134 12.91923881554251 0  0.8247112694127412 13.00491358937156 0  0.7222413029254846 13.08091049599331 0  0.6128157578737984 13.14649764365286 0  0.4974884620746181 13.20104339226467 0  0.3773700804308024 13.24402243645187 0  0.2536174186209674 13.2750208645242 0  0.127422282428429 13.29374014467386 0  0 13.6 0  0 13.5 0  0 13.4 0  0.1274222824284281 13.70625985532614 0  0.2536174186209668 13.7249791354758 0  0.3773700804308007 13.75597756354813 0  0.497488462074617 13.79895660773533 0  0.6128157578737968 13.85350235634714 0  0.7222413029254824 13.91908950400669 0  0.8247112694127393 13.99508641062844 0  0.9192388155425116 14.08076118445749 0  1.004913589371558 14.17528873058726 0  1.080910495993309 14.27775869707452 0  1.146497643652861 14.3871842421262 0  1.201043392264673 14.50251153792538 0  1.244022436451871 14.6226299195692 0  1.275020864524199 14.74638258137903 0  1.293740144673856 14.87257771757157 0  1.293740144673856 15.12742228242843 0  1.2750208645242 15.25361741862097 0  1.244022436451872 15.3773700804308 0  1.201043392264673 15.49748846207462 0  1.146497643652862 15.6128157578738 0  1.08091049599331 15.72224130292548 0  1.00491358937156 15.82471126941274 0  0.9192388155425134 15.91923881554251 0  0.8247112694127412 16.00491358937156 0  0.7222413029254846 16.08091049599331 0  0.6128157578737984 16.14649764365286 0  0.4974884620746181 16.20104339226467 0  0.3773700804308024 16.24402243645187 0  0.2536174186209674 16.2750208645242 0  0.127422282428429 16.29374014467385 0  0 17.87857142857143 0  0 17.75714285714286 0  0 17.63571428571429 0  0 17.51428571428571 0  0 17.39285714285714 0  0 17.27142857142857 0  0 17.15 0  0 17.02857142857143 0  0 16.90714285714286 0  0 16.78571428571428 0  0 16.66428571428571 0  0 16.54285714285714 0  0 16.42142857142857 0  17.8705035971223 18 0  17.7410071942446 18 0  17.61151079136691 18 0  17.48201438848921 18 0  17.35251798561151 18 0  17.22302158273381 18 0  17.09352517985612 18 0  16.96402877697842 18 0  16.83453237410072 18 0  16.70503597122302 18 0  16.57553956834532 18 0  16.44604316546762 18 0  16.31654676258993 18 0  16.18705035971223 18 0  16.05755395683453 18 0  15.92805755395683 18 0  15.79856115107913 18 0  15.66906474820144 18 0  15.53956834532374 18 0  15.41007194244604 18 0  15.28057553956834 18 0  15.15107913669064 18 0  15.02158273381295 18 0  14.89208633093525 18 0  14.76258992805755 18 0  14.63309352517985 18 0  14.50359712230215 18 0  14.37410071942446 18 0  14.24460431654676 18 0  14.11510791366906 18 0  13.98561151079136 18 0  13.85611510791366 18 0  13.72661870503597 18 0  13.59712230215827 18 0  13.46762589928057 18 0  13.33812949640287 18 0  13.20863309352517 18 0  13.07913669064748 18 0  12.94964028776977 18 0  12.82014388489208 18 0  12.69064748201438 18 0  12.56115107913668 18 0  12.43165467625898 18 0  12.30215827338128 18 0  12.17266187050359 18 0  12.04316546762589 18 0  11.91366906474819 18 0  11.78417266187049 18 0  11.65467625899279 18 0  11.52517985611509 18 0  11.3956834532374 18 0  11.2661870503597 18 0  11.136690647482 18 0  11.0071942446043 18 0  10.8776978417266 18 0  10.7482014388489 18 0  10.6187050359712 18 0  10.48920863309351 18 0  10.35971223021581 18 0  10.23021582733811 18 0  10.10071942446041 18 0  9.971223021582714 18 0  9.841726618705016 18 0  9.712230215827317 18 0  9.582733812949618 18 0  9.453237410071921 18 0  9.323741007194224 18 0  9.194244604316525 18 0  9.064748201438828 18 0  8.935251798561131 18 0  8.805755395683434 18 0  8.676258992805735 18 0  8.546762589928038 18 0  8.417266187050341 18 0  8.287769784172642 18 0  8.158273381294947 18 0  8.028776978417248 18 0  7.899280575539549 18 0  7.769784172661854 18 0  7.640287769784155 18 0  7.510791366906458 18 0  7.381294964028761 18 0  7.251798561151062 18 0  7.122302158273365 18 0  6.992805755395668 18 0  6.86330935251797 18 0  6.733812949640273 18 0  6.604316546762576 18 0  6.474820143884878 18 0  6.34532374100718 18 0  6.215827338129483 18 0  6.086330935251786 18 0  5.956834532374087 18 0  5.827338129496392 18 0  5.697
[...]
<PointData  Vectors="f_21"> 
<DataArray  type="Float64"  Name="f_21"  NumberOfComponents="3" format="ascii">-3.1033032250506660e-03 -2.3175813818501825e-03 0.0000000000000000e+00  0.0000000000000000e+00 0.0000000000000000e+00 0.0000000000000000e+00  -5.4026891662670587e-03 -2.0370139613207244e-02 0.0000000000000000e+00  -7.5688468236441717e-03 -3.5434184911592920e-02 0.0000000000000000e+00  -7.4868118481455689e-03 -3.5433806197672120e-02 0.0000000000000000e+00  -4.1586501230596136e-03 -5.0667911405976360e-02 0.0000000000000000e+00  1.7866965267692757e-03 -6.0463001994288480e-02 0.0000000000000000e+00  3.6862121813366535e-03 -6.0466975921262323e-02 0.0000000000000000e+00  1.3215718762058971e-02 -8.2218041617146950e-02 0.0000000000000000e+00  2.1657512409833921e-02 -9.1937133563745568e-02 0.0000000000000000e+00  2.3937842293385969e-02 -9.1943066591030936e-02 0.0000000000000000e+00  3.6239284806377954e-02 -1.1503288334898790e-01 0.0000000000000000e+00  5.1589885296227787e-02 -1.1889853482630487e-01 0.0000000000000000e+00  5.5916169891071260e-02 -1.1892152742861306e-01 0.0000000000000000e+00  7.6889939457244386e-02 -1.5030388899877395e-01 0.0000000000000000e+00  8.7656437753242361e-02 -1.7790645257395757e-01 0.0000000000000000e+00  8.3377850117539676e-02 -1.8268487360961605e-01 0.0000000000000000e+00  1.6099277463405481e-01 -3.9967476456342810e-01 0.0000000000000000e+00  8.9009680608237399e-02 -3.9306589419004284e-01 0.0000000000000000e+00  7.3907428144016032e-02 -2.5634384147446310e-01 0.0000000000000000e+00  7.3681637420244098e-02 -2.5634405146409989e-01 0.0000000000000000e+00  5.8535961544337357e-02 -2.1348587294568724e-01 0.0000000000000000e+00  5.2745849163551004e-02 -2.1344522245502440e-01 0.0000000000000000e+00  3.6371833654300065e-02 -1.3559603858889308e-01 0.0000000000000000e+00  3.4773802143009604e-02 -1.3559382979872950e-01 0.0000000000000000e+00  2.3360021519922228e-02 -7.9033523414272888e-02 0.0000000000000000e+00  2.0608724427299923e-02 -7.9025001466679762e-02 0.0000000000000000e+00  5.3551002908441281e-03 -4.2116299426449740e-03 0.0000000000000000e+00  0.0000000000000000e+00 0.0000000000000000e+00 0.0000000000000000e+00  -3.0700441024386640e-03 -2.0756400098340570e-02 0.0000000000000000e+00  -1.1593121776204054e-03 -2.0966404188807627e-02 0.0000000000000000e+00  -7.9632081723125998e-04 -2.3417596653729049e-02 0.0000000000000000e+00  2.2528195341975517e-03 -5.2920319800696752e-02 0.0000000000000000e+00  5.1327463369241150e-03 -5.4663673045057544e-02 0.0000000000000000e+00  1.0046962319350691e-02 -6.1864286484898411e-02 0.0000000000000000e+00  1.3925385617957801e-03 -2.8343758106949370e-02 0.0000000000000000e+00  3.9788132003048243e-03 -3.6926891866560868e-02 0.0000000000000000e+00  1.1744376743623702e-02 -7.6944282010859441e-02 0.0000000000000000e+00  2.3461891573956728e-02 -9.8475376698703168e-02 0.0000000000000000e+00  1.6847130133062924e-02 -8.5877213287091123e-02 0.0000000000000000e+00  4.3625218625000350e-02 -1.1873361768113001e-01 0.0000000000000000e+00  2.2564763994698454e-02 -8.8226030801794975e-02 0.0000000000000000e+00  2.3930385119286871e-02 -1.0024455016810993e-01 0.0000000000000000e+00  4.4464424831262797e-02 -1.2112913094657686e-01 0.0000000000000000e+00  4.9858874331964044e-02 -1.3769676472385378e-01 0.0000000000000000e+00  7.8535102664734582e-02 -1.5160558395645726e-01 0.0000000000000000e+00  8.2283978526451598e-02 -1.5218595963363568e-01 0.0000000000000000e+00  7.8219970041426973e-02 -1.7294739051852667e-01 0.0000000000000000e+00  3.2651630212913764e-02 -1.2409159403402993e-01 0.0000000000000000e+00  4.5614104267869014e-02 -1.7132767062091256e-01 0.0000000000000000e+00  3.1869487128170351e-02 -1.5994941785994848e-01 0.0000000000000000e+00  6.5936931984113198e-02 -2.2303259216098945e-01 0.0000000000000000e+00  8.1405000603098285e-02 -2.1386739645729613e-01 0.0000000000000000e+00  5.5443046111161472e-02 -2.9068451409824886e-01 0.0000000000000000e+00  -3.1996002307515935e-03 -2.3229282834237972e-03 0.0000000000000000e+00  -3.2702612627453758e-03 -2.3427519888592585e-03 0.0000000000000000e+00  -3.2868630162194903e-03 -2.3590399067008436e-03 0.0000000000000000e+00  -3.2437492837474619e-03 -2.3572217192317168e-03 0.0000000000000000e+00  -3.1440120694147342e-03 -2.3273525343545584e-03 0.0000000000000000e+00  -2.9932459194081020e-03 -2.2650158174210731e-03 0.0000000000000000e+00  -2.7963832992359493e-03 -2.1687641957653181e-03 0.0000000000000000e+00  -2.5571303201798656e-03 -2.0375667407229511e-03 0.0000000000000000e+00  -2.2772930418599206e-03 -1.8701746917346856e-03 0.0000000000000000e+00  -1.9567038453285352e-03 -1.6636062836327219e-03 0.0000000000000000e+00  -1.5927792045243331e-03 -1.4117844321677709e-03 0.0000000000000000e+00  -1.1791515023568866e-03 -1.1014397440051143e-03 0.0000000000000000e+00  -6.8976147391918601e-04 -7.0093130940489332e-04 0.0000000000000000e+00  -3.0913244685255303e-03 -2.4152260666888731e-03 0.0000000000000000e+00  -3.0475317818475008e-03 -2.5493614846903239e-03 0.0000000000000000e+00  -2.9841276191304575e-03 -2.7726778083662163e-03 0.0000000000000000e+00  -2.9252436961159111e-03 -3.1166401350457324e-03 0.0000000000000000e+00  -2.8835644375605667e-03 -3.5962036575635354e-03 0.0000000000000000e+00  -2.8747162708999078e-03 -4.2220633012819576e-03 0.0000000000000000e+00  -2.9102054118426398e-03 -4.9998414527253317e-03 0.0000000000000000e+00  -2.9967386124270189e-03 -5.9359121257467670e-03 0.0000000000000000e+00  -3.1405679966345591e-03 -7.0377356163438811e-03 0.0000000000000000e+00  -3.3416654762321572e-03 -8.3172580227054895e-03 0.0000000000000000e+00  -3.5974050583336427e-03 -9.7921162650630843e-03 0.0000000000000000e+00  -3.9009658340722624e-03 -1.1481896395995407e-02 0.0000000000000000e+00  -4.2438346767645335e-03 -1.3407880426261117e-02 0.0000000000000000e+00  -4.6185911827811279e-03 -1.5568806591608588e-02 0.0000000000000000e+00  -5.0135010906417676e-03 -1.7915675284721679e-02 0.0000000000000000e+00  -5.7400246279324055e-03 -2.2790509478580478e-02 0.0000000000000000e+00  -5.9915447688654189e-03 -2.5067568202587130e-02 0.0000000000000000e+00  -6.1456526040197341e-03 -2.7140313873921594e-02 0.0000000000000000e+00  -6.2258005556514381e-03 -2.8986779145994849e-02 0.0000000000000000e+00  -6.2845910525347153e-03 -3.0613507391238134e-02 0.0000000000000000e+00  -6.3718093964821570e-03 -3.2024064736125638e-02 0.0000000000000000e+00  -6.5178698923976791e-03 -3.3207603471926202e-02 0.0000000000000000e+00  -6.7218451212758415e-03 -3.4145933797527131e-02 0.0000000000000000e+00  -6.9613086663009895e-03 -3.4826690485191644e-02 0.0000000000000000e+00  -7.1946970965980342e-03 -3.5257167692589769e-02 0.0000000000000000e+00  -7.3819840402076795e-03 -3.5474319315609334e-02 0.0000000000000000e+00  -7.5004282435881088e-03 -3.5541863270513348e-02 0.0000000000000000e+00  -7.5560596882532170e-03 -3.5530065297651695e-02 0.0000000000000000e+00  -7.5709856243169971e-03 -3.5496025163175536e-02 0.0000000000000000e+00  -7.5704572206418521e-03 -3.5462997985943254e-02 0.0000000000000000e+00  -7.5060855860078083e-03 -3.5433752675581555e-02 0.0000000000000000e+00  -7.5263108929809128e-03 -3.5433998474446060e-02 0.0000000000000000e+00  -7.5470966402245631e-03 -3.5434240753330050e-02 0.0000000000000000e+00  -7.4858422529200013e-03 -3.5457264714117157e-02 0.0000000000000000e+00  -7.4787125397389959e-03 -3.5475999995692224e-02 0.0000000000000000e+00  -7.4509666255718207e-03 -3.5492289724924957e-02 0.0000000000000000e+00  -7.3784513847111590e-03 -3.5530727188081139e-02 0.0000000000000000e+00  -7.2362160455252322e-03 -3.5644195107099472e-02 0.0000000000000000e+00  -7.0243191712621843e-03 -3.5906959141346090e-02 0.0000000000000000e+00  -6.7599519289053330e-03 -3.6376743876562263e-02 0.0000000000000000e+00  -6.4856784867069290e-03 -3.7092224199586438e-02 0.0000000000000000e+00  -6.2396959659003970e-03 -3.8057739560841637e-02 0.0000000000000000e+00  -6.0444930799135573e-03 -3.9258869459292828e-02 0.0000000000000000e+00  -5.8956258434396825e-03 -4.0676058209850513e-02 0.0000000000000000e+00  -5.7553494540194964e-03 -4.2292940559157680e-02 0.0000000000000000e+00  -5.5652539078075167e-03 -4.4113881365686912e-02 0.0000000000000000e+00  -5.2572201897623794e-03 -4.6135533656286143e-02 0.0000000000000000e+00  -4.7890250539065005e-03 -4.8343628283116370e-02 0.0000000000000000e+00  -3.4032582711166727e-03 -5.2999743135252131e-02 0.0000000000000000e+00  -2.5833431007455734e-03 -5.5210482398860804e-02 0.0000000000000000e+00  -1.7557710653080571e-03 -5.7216924476501112e-02 0.0000000000000000e+00  -9.7580853527766539e-04 -5.8968942254904316e-02 0.0000000000000000e+00  -2.9331807928006969e-04 -6.0460340794652061e-02 0.0000000000000000e+00  2.5221519764078039e-04 -6.1680093381671026e-02 0.0000000000000000e+00  6.4663244444644944e-04 -6.2610511043478839e-02 0.0000000000000000e+00  9.0640893652449797e-04 -6.3232746882695229e-02 0.0000000000000000e+00  1.0657669637856922e-03 -6.3537042302411223e-02 0.0000000000000000e+00  1.1753836624149980e-03 -6.3536185326360295e-02 0.0000000000000000e+00  1.2804013286312665e-03 -6.3275339085056378e-02 0.0000000000000000e+00  1.4051893960100210e-03 -6.2827709481273336e-02 0.0000000000000000e+00  1.5426365246660433e-03 -6.2273017404632210e-02 0.0000000000000000e+00  1.6685514895862421e-03 -6.1677241104718859e-02 0.0000000000000000e+00  1.7552112120725021e-03 -6.1070806204750701e-02 0.0000000000000000e+00  3.2125705117744012e-03 -6.0465809896024986e-02 0.0000000000000000e+00  2.7379502172872089e-03 -6.0464998913300497e-02 0.0000000000000000e+00  2.2628181597604117e-03 -6.0464181812367651e-02 0.0000000000000000e+00  3.7142187281698808e-03 -6.1069378375579776e-02 0.0000000000000000e+00  3.8053829756277122e-03 -6.1661532307662019e-02 0.0000000000000000e+00  3.9740499196096605e-03 -6.2240874903837805e-02 0.0000000000000000e+00  4.2434661949783967e-03 -6.2828522072885043e-02 0.0000000000000000e+00  4.6362320765073219e-03 -6.3474701025843280e-02 0.0000000000000000e+00  5.1476820251578712e-03 -6.4250163321324674e-02 0.0000000000000000e+00  5.7556969871294765e-03 -6.5206690882845239e-02 0.0000000000000000e+00  6.4142233843128759e-03 -6.6375245695140569e-02 0.0000000000000000e+00  7.0849453133714994e-03 -6.7752988690549257e-02 0.0000000000000000e+00  7.7480419670616371e-03 -6.9321257660120969e-02 0.0000000000000000e+00  8.4117429526339785e-03 -7.1060253544192223e-02 0.0000000000000000e+00  9.1149836044881159e-03 -7.2958866184711979e-02 0.0000000000000000e+00  9.9129547509551261e-03 -7.5028005195224137e-02 0.0000000000000000e+00  1.0859305059558361e-02 -7.7274406337944856e-02 0.0000000000000000e+00  1.1972341454881685e-02 -7.9692328264326193e-02 0.0000000000000000e+00  1.4512399758768781e-02 -8.4741865561350646e-02 0.0000000000000000e+00  1.5776827285655399e-02 -8.7118661392231969e-02 0.0000000000000000e+00  1.6953598730720828e-02 -8.9265915314233418e-02 0.0000000000000000e+00  1.8003371997718082e-02 -9.1128464082130267e-02 0.0000000000000000e+00  1.8889223870786908e-02 -9.2692560774478863e-02 0.0000000000000000e+00  1.9588901197842120e-02 -9.3955389643715873e-02 0.0000000000000000e+00  2.0100656843622011e-02 -9.4897049573123823e-02 0.0000000000000000e+00  2.0449701640385499e-02 -9.5499563878870070e-02 0.0000000000000000e+00  2.0682563594740640e-02 -9.5755405865956086e-02 0.0000000000000000e+00  2.0853756495250148e-02 -9.5681802537129393e-02 0.0000000000000000e+00  2.1011299129443651e-02 -9.5327893333347985e-02 0.0000000000000000e+00  2.1183266769539005e-02 -9.4775221566127332e-02 0.0000000000000000e+00  2.1359281992185661e-02 -9.4107295213112813e-02 0.0000000000000000e+00  2.1514420364386024e-02 -9.3393099226316598e-02 0.0000000000000000e+00  2.1619427058947996e-02 -9.2666317563031453e-02 0.0000000000000000e+00  2.3369041472037267e-02 -9.1941405014837913e-02 0.0000000000000000e+00  2.2799226176513483e-02 -9.1940113601904516e-02 0.0000000000000000e+00  2.2228877959458000e-02 -9.1938812660798425e-02 0.0000000000000000e+00  2.3971170120357117e-02 -9.2666710980362249e-02 0.0000000000000000e+00  2.4079690548776459e-02 -9.3378855822686541e-02 0.0000000000000000e+00  2.4278059031707520e-02 -9.4075874725703224e-02 0.0000000000000000e+00  2.4590179274039125e-02 -9.4778790310721894e-02 0.0000000000000000e+00  2.5039202146620036e-02 -9.5538285294145139e-02 0.0000000000000000e+00  2.5620294330643636e-02 -9.6426220357510195e-02 0.0000000000000000e+00  2.6309641843935777e-02 -9.7494438509486483e-02 0.0000000000000000e+00  2.7061177831080484e-02 -9.8770255542338870e-02 0.0000000000000000e+00  2.7840911833168502e-02 -1.0024704467422363e-01 0.0000000000000000e+00  2.8635114091896327e-02 -1.0190396408314042e-01 0.0000000000000000e+00  2.9463865130066498e-02 -1.0371730617898535e-01 0.0000000000000000e+00  3.0381002067024116e-02 -1.0567751175001246e-01 0.0000000000000000e+00  3.1464287545490688e-02 -1.0778988266981844e-01 0.0000000000000000e+00  3.2788952528717469e-02 -1.1006589792754655e-01 0.0000000000000000e+00  3.4392606785783077e-02 -1.1249972775089936e-01 0.0000000000000000e+00  3.8224616984020826e-02 -1.1755512818924914e-01 0.0000000000000000e+00  4.0216437162359731e-02 -1.1991148796958233e-01 0.0000000000000000e+00  4.2116312226665821e-02 -1.2200631744911664e-01 0.0000000000000000e+00  4.3853529957586034e-02 -1.2377025496200400e-01 0.0000000000000000e+00  4.5372789500789823e-02 -1.2517785991969441e-01 0.0000000000000000e+00  4.6645082862337622e-02 -1.2621803050348460e-01 0.0000000000000000e+00  4.7669581311654365e-02 -1.2686356499775578e-01 0.0000000000000000e+00  4.8477396888454878e-02 -1.2709488657888568e-01 0.0000000000000000e+00  4.9121651510221173e-02 -1.2690842128284699e-01 0.0000000000000000e+00  4.9660711290247600e-02 -1.2633080058097113e-01 0.0000000000000000e+00  5.0142389283568012e-02 -1.2542371596651836e-01 0.0000000000000000e+00  5.0590701216205652e-02 -1.2428166458125148e-01 0.0000000000000000e+00  5.0989295252537932e-02 -1.2299857731510025e-01 0.0000000000000000e+00  5.1308038148486501e-02 -1.2165127541143447e-01 0.0000000000000000e+00  5.1514330387683500e-02 -1.2027934587269518e-01 0.0000000000000000e+00  5.4836003550736333e-02 -1.1891563457028204e-01 0.0000000000000000e+00  5.3754760496943166e-02 -1.1891005464143579e-01 0.0000000000000000e+00  5.2672861474394955e-02 -1.1890446102889139e-01 0.0000000000000000e+00  5.5976098501255317e-02 -1.2029704183987121e-01 0.0000000000000000e+00  5.6174912818444694e-02 -1.2165503113888758e-01 0.0000000000000000e+00  5.6526828589799301e-02 -1.2298516933849910e-01 0.0000000000000000e+00  5.7055498369666308e-02 -1.2430229648242931e-01 0.0000000000000000e+00  5.7783917299766278e-02 -1.2565204196149929e-01 0.0000000000000000e+00  5.8707279947896540e-02 -1.2710194492548835e-01 0.0000000000000000e+00  5.9802523387140781e-02 -1.2869924460921989e-01 0.0000000000000000e+00  6.1027031306812689e-02 -1.3046646291079159e-01 0.0000000000000000e+00  6.2354549671726739e-02 -1.3239346323073797e-01 0.0000000000000000e+00  6.3783775291761408e-02 -1.3445992262475068e-01 0.0000000000000000e+00  6.5349588103911380e-02 -1.3665013454221592e-01 0.0000000000000000e+00  6.7118200387195376e-02 -1.3897061848219025e-01 0.0000000000000000e+00  6.9165436372677580e-02 -1.4145600499431957e-01 0.0000000000000000e+00  7.1531198351916570e-02 -1.4416018179465179e-01 0.0000000000000000e+00  7.4168042968674450e-02 -1.4711937460367044e-01 0.0000000000000000e+00  7.9437769438742839e-02 -1.5360181006436607e-01 0.0000000000000000e+00  8.1595820550526041e-02 -1.5681006036449868e-01 0.0000000000000000e+00  8.3297439187684730e-02 -1.5979781774591903e-01 0.0000000000000000e+00  8.4587206562153266e-02 -1.6246289482109705e-01 0.0000000000000000e+00  8.5560343105748463e-02 -1.6479525231813752e-01 0.0000000000000000e+00  8.6300408277292059e-02 -1.6683565274705328e-01 0.0000000000000000e+00  8.6866091286184499e-02 -1.6863075713952078e-01 0.0000000000000000e+00  8.7293153312266683e-02 -1.7022767719538676e-01 0.0000000000000000e+00  8.7600780302189707e-02 -1.7166270069284165e-01 0.0000000000000000e+00  8.7802582122538816e-02 -1.7295778240997420e-01 0.0000000000000000e+00  8.7907283771240907e-02 -1.7412406108704861e-01 0.0000000000000000e+00  8.7925430010429934e-02 -1.7515870218816612e-01 0.0000000000000000e+00  8.7876133393987213e-02 -1.7605342307932287e-01 0.0000000000000000e+00  8.7781844369271528e-02 -1.7679785080214849e-01 0.0000000000000000e+00  8.7691648886271401e-02 -1.7739710230716640e-01 0.0000000000000000e+00  8.3868607412489471e-02 -1.8208858944940304e-01 0.0000000000000000e+00  8.4324486841552374e-02 -1.8147948867232017e-01 0.0000000000000000e+00  8.4721240418815291e-02 -1.8087323440469810e-01 0.0000000000000000e+00  8.5051712681358610e-02 -1.8028926615512897e-01 0.0000000000000000e+00  8.5319565168020625e-02 -1.7974557255179421e-01 0.0000000000000000e+00  8.5535348082741464e-02 -1.7925605099212746e-01 0.0000000000000000e+00  8.5714007431855352e-02 -1.7883192222834338e-01 0.0000000000000000e+00  8.5873723551603068e-02 -1.7848203095686990e-01 0.0000000000000000e+00  8.6035494683639677e-02 -1.7821273250025024e-01 0.0000000000000000e+00  8.6222527119391226e-02 -1.7802691468075568e-01 0.0000000000000000e+00  8.6460909635140096e-02 -1.7792324317905325e-01 0.0000000000000000e+00  8.6776017427252883e-02 -1.7788863175572800e-01 0.0000000000000000e+00  8.7183045253186195e-02 -1.7789846256726163e-01 0.0000000000000000e+00  1.6080441354603650e-01 -3.9436658993030571e-01 0.0000000000000000e+00  1.6059541006539346e-01 -3.8910335509596305e-01 0.0000000000000000e+00  1.6036727436113196e-01 -3.8380834001821296e-01 0.0000000000000000e+00  1.6010542762398391e-01 -3.7844858200643583e-01 0.0000000000000000e+00  1.5979122753099168e-01 -3.7301141672332450e-01 0.0000000000000000e+00  1.5941158442490419e-01 -3.6749808633363551e-01 0.0000000000000000e+00  1.5895844107380697e-01 -3.6191696573394044e-01 0.0000000000000000e+00  1.5842704635528637e-01 -3.5628163744256636e-01 0.0000000000000000e+00  1.5781833315123342e-01 -3.5060819615570532e-01 0.0000000000000000e+00  1.5713603140745086e-01 -3.4491336943918166e-01 0.0000000000000000e+00  1.5638647462001939e-01 -3.3921326565659438e-01 0.0000000000000000e+00  1.5557713446623123e-01 -3.3352343251982663e-01 0.0000000000000000e+00  1.5471612602204837e-01 -3.2785830109425795e-01 0.0000000000000000e+00  1.5381098645870167e-01 -3.2223123686862304e-01 0.0000000000000000e+00  1.5286789343796850e-01 -3.1665509043450596e-01 0.0000000000000000e+00  1.5189121689401106e-01 -3.1114310417264079e-01 0.0000000000000000e+00  1.5088363704712560e-01 -3.0570903651538450e-01 0.0000000000000000e+00  1.4984524260115839e-01 -3.0036963351842916e-01 0.0000000000000000e+00  1.4877459565582868e-01 -2.9514394450984266e-01 0.0000000000000000e+00  1.4766862080014631e-01 -2.9005575601266276e-01 0.0000000000000000e+00  1.4652318357209615e-01 -2.8513575436689131e-01 0.0000000000000000e+00  1.4533347125059004e-01 -2.8042622656455590e-01 0.0000000000000000e+00  1.4409466382404354e-01 -2.7599895950814685e-01 0.0000000000000000e+00  1.4283404835023641e-01 -2.7199492174270201e-01 0.0000000000000000e+00  1.4159838226938690e-01 -2.6832836660142889e-01 0.0000000000000000e+00  1.4038831231661245e-01 -2.6490421452586077e-01 0.0000000000000000e+00  1.3920026188703213e-01 -2.6168330447348498e-01 0.0000000000000000e+00  1.3803332529231285e-01 -2.5863808119885279e-01 0.0000000000000000e+00  1.3688687391693061e-01 -2.5574795816224244e-01 0.0000000000000000e+00  1.3576215157540089e-01 -2.5299634431489515e-01 0.0000000000000000e+00  1.3466101025961921e-01 -2.5036863147987887e-01 0.0000000000000000e+00  1.3358643211260171e-01 -2.4785146211109799e-01 0.0000000000000000e+00  1.3254200975581301e-01 -2.4543197427561636e-01 0.0000000000000000e+00  1.3153150914727421e-01 -2.4309789335501467e-01 0.0000000000000000e+00  1.3055901217194396e-01 -2.4083657984303444e-01 0.0000000000000000e+00  1.2962790306753019e-01 -2.3863566408031875e-01 0.0000000000000000e+00  1.2874113138409959e-01 -2.3648314735434761e-01 0.0000000000000000e+00  1.279000345