<?xml version="1.0"?>
<VTKFile type="UnstructuredGrid"  version="0.1"  >
<UnstructuredGrid>
<Piece  NumberOfPoints="12853" NumberOfCells="23493">
<Points>
<DataArray  type="Float64"  NumberOfComponents="3"  format="ascii">-3.187178156719634e-14 1.7 0  0 0 0  1.3 3 0  -3.185690647650846e-14 4.300000000000001 0  -3.187178156719634e-14 4.699999999999999 0  1.3 6 0  -3.185690647650846e-14 7.300000000000001 0  -3.187178156719634e-14 7.699999999999999 0  1.3 9 0  -3.185690647650846e-14 10.3 0  -3.187178156719634e-14 10.7 0  1.3 12 0  -3.185690647650846e-14 13.3 0  -3.187178156719634e-14 13.7 0  1.3 15 0  -3.185690647650846e-14 16.3 0  0 18 0  18 18 0  17.99999999999997 16.3 0  17.99999999999997 13.7 0  17.99999999999997 13.3 0  17.99999999999997 10.7 0  17.99999999999997 10.3 0  17.99999999999997 7.7 0  17.99999999999997 7.3 0  17.99999999999997 4.7 0  17.99999999999997 4.3 0  17.99999999999997 1.7 0  18 0 0  4.3 3 0  7.3 3 0  10.3 3 0  4.3 6 0  7.3 6 0  10.3 6 0  13.3 3 0  16.3 3 0  13.3 6 0  16.3 6 0  4.3 9 0  4.3 12 0  7.3 9 0  10.3 9 0  7.3 12 0  10.3 12 0  4.3 15 0  7.3 15 0  10.3 15 0  13.3 9 0  13.3 12 0  16.3 9 0  16.3 12 0  13.3 15 0  16.3 15 0  0 1.578571428571429 0  0 1.457142857142856 0  0 1.335714285714285 0  0 1.214285714285712 0  0 1.092857142857142 0  0 0.9714285714285715 0  0 0.8499999999999979 0  0 0.7285714285714278 0  0 0.6071428571428577 0  0 0.485714285714284 0  0 0.3642857142857139 0  0 0.2428571428571438 0  0 0.1214285714285701 0  0.1274222824284281 1.706259855326144 0  0.2536174186209668 1.7249791354758 0  0.3773700804308007 1.755977563548128 0  0.497488462074617 1.798956607735327 0  0.6128157578737968 1.853502356347138 0  0.7222413029254824 1.919089504006691 0  0.8247112694127393 1.995086410628442 0  0.9192388155425116 2.080761184457488 0  1.004913589371558 2.17528873058726 0  1.080910495993309 2.277758697074517 0  1.146497643652861 2.387184242126203 0  1.201043392264673 2.502511537925383 0  1.244022436451871 2.622629919569199 0  1.275020864524199 2.746382581379033 0  1.293740144673856 2.872577717571571 0  1.293740144673856 3.127422282428428 0  1.2750208645242 3.253617418620966 0  1.244022436451872 3.3773700804308 0  1.201043392264673 3.497488462074616 0  1.146497643652862 3.612815757873796 0  1.08091049599331 3.722241302925481 0  1.00491358937156 3.824711269412738 0  0.9192388155425134 3.91923881554251 0  0.8247112694127412 4.004913589371556 0  0.7222413029254846 4.080910495993308 0  0.6128157578737984 4.146497643652861 0  0.4974884620746181 4.201043392264673 0  0.3773700804308024 4.244022436451871 0  0.2536174186209674 4.275020864524199 0  0.127422282428429 4.293740144673856 0  0 4.6 0  0 4.5 0  0 4.4 0  0.1274222824284281 4.706259855326143 0  0.2536174186209668 4.724979135475801 0  0.3773700804308007 4.755977563548129 0  0.497488462074617 4.798956607735327 0  0.6128157578737968 4.853502356347138 0  0.7222413029254824 4.919089504006691 0  0.8247112694127393 4.995086410628442 0  0.9192388155425116 5.080761184457488 0  1.004913589371558 5.17528873058726 0  1.080910495993309 5.277758697074518 0  1.146497643652861 5.387184242126203 0  1.201043392264673 5.502511537925383 0  1.244022436451871 5.622629919569198 0  1.275020864524199 5.746382581379033 0  1.293740144673856 5.872577717571572 0  1.293740144673856 6.127422282428428 0  1.2750208645242 6.253617418620967 0  1.244022436451872 6.377370080430801 0  1.201043392264673 6.497488462074616 0  1.146497643652862 6.612815757873795 0  1.08091049599331 6.722241302925481 0  1.00491358937156 6.824711269412737 0  0.9192388155425134 6.91923881554251 0  0.8247112694127412 7.004913589371556 0  0.7222413029254846 7.080910495993308 0  0.6128157578737984 7.146497643652861 0  0.4974884620746181 7.201043392264673 0  0.3773700804308024 7.244022436451871 0  0.2536174186209674 7.275020864524199 0  0.127422282428429 7.293740144673856 0  0 7.6 0  0 7.5 0  0 7.4 0  0.1274222824284281 7.706259855326143 0  0.2536174186209668 7.724979135475801 0  0.3773700804308007 7.755977563548129 0  0.497488462074617 7.798956607735327 0  0.6128157578737968 7.853502356347138 0  0.7222413029254824 7.919089504006691 0  0.8247112694127393 7.995086410628442 0  0.9192388155425116 8.080761184457488 0  1.004913589371558 8.17528873058726 0  1.080910495993309 8.277758697074518 0  1.146497643652861 8.387184242126203 0  1.201043392264673 8.502511537925383 0  1.244022436451871 8.622629919569199 0  1.275020864524199 8.746382581379033 0  1.293740144673856 8.872577717571572 0  1.293740144673856 9.127422282428428 0  1.2750208645242 9.253617418620966 0  1.244022436451872 9.377370080430801 0  1.201043392264673 9.497488462074616 0  1.146497643652862 9.612815757873795 0  1.08091049599331 9.722241302925481 0  1.00491358937156 9.824711269412738 0  0.9192388155425134 9.91923881554251 0  0.8247112694127412 10.00491358937156 0  0.7222413029254846 10.08091049599331 0  0.6128157578737984 10.14649764365286 0  0.4974884620746181 10.20104339226467 0  0.3773700804308024 10.24402243645187 0  0.2536174186209674 10.2750208645242 0  0.127422282428429 10.29374014467386 0  0 10.6 0  0 10.5 0  0 10.4 0  0.1274222824284281 10.70625985532614 0  0.2536174186209668 10.7249791354758 0  0.3773700804308007 10.75597756354813 0  0.497488462074617 10.79895660773533 0  0.6128157578737968 10.85350235634714 0  0.7222413029254824 10.91908950400669 0  0.8247112694127393 10.99508641062844 0  0.9192388155425116 11.08076118445749 0  1.004913589371558 11.17528873058726 0  1.080910495993309 11.27775869707452 0  1.146497643652861 11.3871842421262 0  1.201043392264673 11.50251153792538 0  1.244022436451871 11.6226299195692 0  1.275020864524199 11.74638258137903 0  1.293740144673856 11.87257771757157 0  1.293740144673856 12.12742228242843 0  1.2750208645242 12.25361741862097 0  1.244022436451872 12.3773700804308 0  1.201043392264673 12.49748846207462 0  1.146497643652862 12.6128157578738 0  1.08091049599331 12.72224130292548 0  1.00491358937156 12.82471126941274 0  0.9192388155425134 12.91923881554251 0  0.8247112694127412 13.00491358937156 0  0.7222413029254846 13.08091049599331 0  0.6128157578737984 13.14649764365286 0  0.4974884620746181 13.20104339226467 0  0.3773700804308024 13.24402243645187 0  0.2536174186209674 13.2750208645242 0  0.127422282428429 13.29374014467386 0  0 13.6 0  0 13.5 0  0 13.4 0  0.1274222824284281 13.70625985532614 0  0.2536174186209668 13.7249791354758 0  0.3773700804308007 13.75597756354813 0  0.497488462074617 13.79895660773533 0  0.6128157578737968 13.85350235634714 0  0.7222413029254824 13.91908950400669 0  0.8247112694127393 13.99508641062844 0  0.9192388155425116 14.08076118445749 0  1.004913589371558 14.17528873058726 0  1.080910495993309 14.27775869707452 0  1.146497643652861 14.3871842421262 0  1.201043392264673 14.50251153792538 0  1.244022436451871 14.6226299195692 0  1.275020864524199 14.74638258137903 0  1.293740144673856 14.87257771757157 0  1.293740144673856 15.12742228242843 0  1.2750208645242 15.25361741862097 0  1.244022436451872 15.3773700804308 0  1.201043392264673 15.49748846207462 0  1.146497643652862 15.6128157578738 0  1.08091049599331 15.72224130292548 0  1.00491358937156 15.82471126941274 0  0.9192388155425134 15.91923881554251 0  0.8247112694127412 16.00491358937156 0  0.7222413029254846 16.08091049599331 0  0.6128157578737984 16.14649764365286 0  0.4974884620746181 16.20104339226467 0  0.3773700804308024 16.24402243645187 0  0.2536174186209674 16.2750208645242 0  0.127422282428429 16.29374014467385 0  0 17.87857142857143 0  0 17.75714285714286 0  0 17.63571428571429 0  0 17.51428571428571 0  0 17.39285714285714 0  0 17.27142857142857 0  0 17.15 0  0 17.02857142857143 0  0 16.90714285714286 0  0 16.78571428571428 0  0 16.66428571428571 0  0 16.54285714285714 0  0 16.42142857142857 0  17.8705035971223 18 0  17.7410071942446 18 0  17.61151079136691 18 0  17.48201438848921 18 0  17.35251798561151 18 0  17.22302158273381 18 0  17.09352517985612 18 0  16.96402877697842 18 0  16.83453237410072 18 0  16.70503597122302 18 0  16.57553956834532 18 0  16.44604316546762 18 0  16.31654676258993 18 0  16.18705035971223 18 0  16.05755395683453 18 0  15.92805755395683 18 0  15.79856115107913 18 0  15.66906474820144 18 0  15.53956834532374 18 0  15.41007194244604 18 0  15.28057553956834 18 0  15.15107913669064 18 0  15.02158273381295 18 0  14.89208633093525 18 0  14.76258992805755 18 0  14.63309352517985 18 0  14.50359712230215 18 0  14.37410071942446 18 0  14.24460431654676 18 0  14.11510791366906 18 0  13.98561151079136 18 0  13.85611510791366 18 0  13.72661870503597 18 0  13.59712230215827 18 0  13.46762589928057 18 0  13.33812949640287 18 0  13.20863309352517 18 0  13.07913669064748 18 0  12.94964028776977 18 0  12.82014388489208 18 0  12.69064748201438 18 0  12.56115107913668 18 0  12.43165467625898 18 0  12.30215827338128 18 0  12.17266187050359 18 0  12.04316546762589 18 0  11.91366906474819 18 0  11.78417266187049 18 0  11.65467625899279 18 0  11.52517985611509 18 0  11.3956834532374 18 0  11.2661870503597 18 0  11.136690647482 18 0  11.0071942446043 18 0  10.8776978417266 18 0  10.7482014388489 18 0  10.6187050359712 18 0  10.48920863309351 18 0  10.35971223021581 18 0  10.23021582733811 18 0  10.10071942446041 18 0  9.971223021582714 18 0  9.841726618705016 18 0  9.712230215827317 18 0  9.582733812949618 18 0  9.453237410071921 18 0  9.323741007194224 18 0  9.194244604316525 18 0  9.064748201438828 18 0  8.935251798561131 18 0  8.805755395683434 18 0  8.676258992805735 18 0  8.546762589928038 18 0  8.417266187050341 18 0  8.287769784172642 18 0  8.158273381294947 18 0  8.028776978417248 18 0  7.899280575539549 18 0  7.769784172661854 18 0  7.640287769784155 18 0  7.510791366906458 18 0  7.381294964028761 18 0  7.251798561151062 18 0  7.122302158273365 18 0  6.992805755395668 18 0  6.86330935251797 18 0  6.733812949640273 18 0  6.604316546762576 18 0  6.474820143884878 18 0  6.34532374100718 18 0  6.215827338129483 18 0  6.086330935251786 18 0  5.956834532374087 18 0  5.827338129496392 18 0  5.697
[...]
<PointData  Vectors="f_21"> 
<DataArray  type="Float64"  Name="f_21"  NumberOfComponents="3" format="ascii">-3.7707647326659763e-03 -2.8129856137696437e-03 0.0000000000000000e+00  0.0000000000000000e+00 0.0000000000000000e+00 0.0000000000000000e+00  -6.3930649530254437e-03 -2.4718912556636323e-02 0.0000000000000000e+00  -8.6220845237464407e-03 -4.2724159982058835e-02 0.0000000000000000e+00  -8.4218620399079177e-03 -4.2723742361983737e-02 0.0000000000000000e+00  -3.8330879628728368e-03 -6.1499986329908864e-02 0.0000000000000000e+00  4.5300147667298382e-03 -7.2425889876212915e-02 0.0000000000000000e+00  7.1599939646074728e-03 -7.2433895410194737e-02 0.0000000000000000e+00  2.0077594259003025e-02 -9.9937176261879340e-02 0.0000000000000000e+00  3.1484300739759406e-02 -1.1119661069976038e-01 0.0000000000000000e+00  3.4507962492964478e-02 -1.1120735093427346e-01 0.0000000000000000e+00  5.0732037319272755e-02 -1.4009505316659596e-01 0.0000000000000000e+00  7.1432151701861402e-02 -1.4339111343930480e-01 0.0000000000000000e+00  7.7224655477177218e-02 -1.4343257294599451e-01 0.0000000000000000e+00  1.0484457840768428e-01 -1.8360850991187974e-01 0.0000000000000000e+00  1.1885915913772885e-01 -2.1763409126739475e-01 0.0000000000000000e+00  1.1395194612103864e-01 -2.2353609085557608e-01 0.0000000000000000e+00  2.1062292362510143e-01 -5.0003249013396955e-01 0.0000000000000000e+00  1.1781888659162708e-01 -4.9110553392462203e-01 0.0000000000000000e+00  9.8469756284577839e-02 -3.1646651819304039e-01 0.0000000000000000e+00  9.8721861468041364e-02 -3.1646673999512953e-01 0.0000000000000000e+00  7.7600274844196751e-02 -2.6975464873651384e-01 0.0000000000000000e+00  6.9257743686914564e-02 -2.6966920019602325e-01 0.0000000000000000e+00  4.6870400841963762e-02 -1.6740873024997480e-01 0.0000000000000000e+00  4.5205150316181254e-02 -1.6740641568071982e-01 0.0000000000000000e+00  3.0119184213515601e-02 -9.9933170208631975e-02 0.0000000000000000e+00  2.6275584253703549e-02 -9.9915884306410269e-02 0.0000000000000000e+00  6.6077958256450841e-03 -5.2056201777126027e-03 0.0000000000000000e+00  0.0000000000000000e+00 0.0000000000000000e+00 0.0000000000000000e+00  -3.5854646530589316e-03 -2.5393031855502957e-02 0.0000000000000000e+00  -1.0458842675427757e-03 -2.5638072115243441e-02 0.0000000000000000e+00  -8.7937435531284408e-04 -2.8735315688801302e-02 0.0000000000000000e+00  4.4360473282359899e-03 -6.4696313821533319e-02 0.0000000000000000e+00  7.5701522658898901e-03 -6.6957551819964642e-02 0.0000000000000000e+00  1.4333714065477014e-02 -7.5872690576854376e-02 0.0000000000000000e+00  2.2633053257210176e-03 -3.4807455906413126e-02 0.0000000000000000e+00  4.5868160006291153e-03 -4.5908260766641770e-02 0.0000000000000000e+00  1.5010936591794484e-02 -9.4906589543748962e-02 0.0000000000000000e+00  3.1711162902552985e-02 -1.2236503748350480e-01 0.0000000000000000e+00  2.4100508627101825e-02 -1.0506011065288362e-01 0.0000000000000000e+00  6.0448722420675539e-02 -1.4537836594584380e-01 0.0000000000000000e+00  3.1753508238054722e-02 -1.0806598962943896e-01 0.0000000000000000e+00  3.2371996166011961e-02 -1.2298115117321680e-01 0.0000000000000000e+00  6.0825357885227506e-02 -1.4846801631559975e-01 0.0000000000000000e+00  6.8500508259275950e-02 -1.6903649492522121e-01 0.0000000000000000e+00  1.0635152561964160e-01 -1.8583476386704489e-01 0.0000000000000000e+00  1.1139533615117428e-01 -1.8677797546236208e-01 0.0000000000000000e+00  1.0577218344295466e-01 -2.1229901430472189e-01 0.0000000000000000e+00  4.5005658711315961e-02 -1.5283504381911131e-01 0.0000000000000000e+00  6.0989183667521117e-02 -2.1111905869917905e-01 0.0000000000000000e+00  4.0291014753017100e-02 -1.9868099229869149e-01 0.0000000000000000e+00  9.0402810418305266e-02 -2.7702268671478980e-01 0.0000000000000000e+00  1.1057374476211841e-01 -2.6368894921654606e-01 0.0000000000000000e+00  7.3969398744271789e-02 -3.6092022132645174e-01 0.0000000000000000e+00  -3.8884783875809490e-03 -2.8194657999857054e-03 0.0000000000000000e+00  -3.9751833772287415e-03 -2.8436302283059581e-03 0.0000000000000000e+00  -3.9962576762025770e-03 -2.8636824681687280e-03 0.0000000000000000e+00  -3.9447084708788089e-03 -2.8619119410470883e-03 0.0000000000000000e+00  -3.8242022194938871e-03 -2.8261917673196011e-03 0.0000000000000000e+00  -3.6414808437279333e-03 -2.7510940954194201e-03 0.0000000000000000e+00  -3.4025071224974184e-03 -2.6348128915508542e-03 0.0000000000000000e+00  -3.1117719987350167e-03 -2.4760431032231742e-03 0.0000000000000000e+00  -2.7714688630476022e-03 -2.2732214469084779e-03 0.0000000000000000e+00  -2.3814026701631068e-03 -2.0226780773469032e-03 0.0000000000000000e+00  -1.9384526608552586e-03 -1.7169777378468847e-03 0.0000000000000000e+00  -1.4349142111823475e-03 -1.3399282689049105e-03 0.0000000000000000e+00  -8.3914299587544545e-04 -8.5295503755412211e-04 0.0000000000000000e+00  -3.7561932498197058e-03 -2.9322909421634420e-03 0.0000000000000000e+00  -3.7027889147692476e-03 -3.0957295068349436e-03 0.0000000000000000e+00  -3.6252296578893552e-03 -3.3673550191037497e-03 0.0000000000000000e+00  -3.5527342033549914e-03 -3.7855061778390856e-03 0.0000000000000000e+00  -3.5006232080408636e-03 -4.3684306144318131e-03 0.0000000000000000e+00  -3.4877644730514669e-03 -5.1291632367896026e-03 0.0000000000000000e+00  -3.5279782078369566e-03 -6.0745215334773251e-03 0.0000000000000000e+00  -3.6291681364621514e-03 -7.2121598348593684e-03 0.0000000000000000e+00  -3.7985783776537038e-03 -8.5509687924550746e-03 0.0000000000000000e+00  -4.0356380681004934e-03 -1.0105194074823610e-02 0.0000000000000000e+00  -4.3363391395158050e-03 -1.1895884521373466e-02 0.0000000000000000e+00  -4.6912158017486418e-03 -1.3946424887070983e-02 0.0000000000000000e+00  -5.0883937692244481e-03 -1.6282237350033053e-02 0.0000000000000000e+00  -5.5172508750485098e-03 -1.8901598676453395e-02 0.0000000000000000e+00  -5.9624798593868201e-03 -2.1745289597317453e-02 0.0000000000000000e+00  -6.7553777929472520e-03 -2.7651539315445024e-02 0.0000000000000000e+00  -7.0117347226339843e-03 -3.0411071737487392e-02 0.0000000000000000e+00  -7.1514237219936745e-03 -3.2923379747678928e-02 0.0000000000000000e+00  -7.2053113686949477e-03 -3.5160832540153925e-02 0.0000000000000000e+00  -7.2384854987103814e-03 -3.7130229374889592e-02 0.0000000000000000e+00  -7.3116020854490631e-03 -3.8834749952617140e-02 0.0000000000000000e+00  -7.4611180365049172e-03 -4.0260187192783972e-02 0.0000000000000000e+00  -7.6850499318755735e-03 -4.1383858656856481e-02 0.0000000000000000e+00  -7.9553760741564953e-03 -4.2190639729906866e-02 0.0000000000000000e+00  -8.2209671634778086e-03 -4.2689788223955506e-02 0.0000000000000000e+00  -8.4329158263477619e-03 -4.2926902162478443e-02 0.0000000000000000e+00  -8.5636164687257540e-03 -4.2980165891519755e-02 0.0000000000000000e+00  -8.6206050008663226e-03 -4.2935603468911614e-02 0.0000000000000000e+00  -8.6309891154024519e-03 -4.2863083111558439e-02 0.0000000000000000e+00  -8.6256303100434722e-03 -4.2791207157842563e-02 0.0000000000000000e+00  -8.4704115807827784e-03 -4.2723667362217180e-02 0.0000000000000000e+00  -8.5201208918456676e-03 -4.2723955284484673e-02 0.0000000000000000e+00  -8.5705150802289926e-03 -4.2724238705411567e-02 0.0000000000000000e+00  -8.4191239820460544e-03 -4.2784266454294867e-02 0.0000000000000000e+00  -8.4057618307294153e-03 -4.2838729387383888e-02 0.0000000000000000e+00  -8.3642162245742349e-03 -4.2889592469937968e-02 0.0000000000000000e+00  -8.2651465303100399e-03 -4.2966495932494714e-02 0.0000000000000000e+00  -8.0782833199036924e-03 -4.3133527245761534e-02 0.0000000000000000e+00  -7.8038290683599323e-03 -4.3480757002857182e-02 0.0000000000000000e+00  -7.4628220395721572e-03 -4.4078035709620517e-02 0.0000000000000000e+00  -7.1070133173596044e-03 -4.4971857760320914e-02 0.0000000000000000e+00  -6.7825368067222910e-03 -4.6166783970633084e-02 0.0000000000000000e+00  -6.5159877013906244e-03 -4.7644408995916862e-02 0.0000000000000000e+00  -6.3005851913918607e-03 -4.9379954472903602e-02 0.0000000000000000e+00  -6.0881516615917336e-03 -5.1352551526124245e-02 0.0000000000000000e+00  -5.8042739352013664e-03 -5.3566489326677055e-02 0.0000000000000000e+00  -5.3617855245458304e-03 -5.6017814348276483e-02 0.0000000000000000e+00  -4.7056280603912076e-03 -5.8689840593705501e-02 0.0000000000000000e+00  -2.7946962944709213e-03 -6.4318590565920625e-02 0.0000000000000000e+00  -1.6729739281634791e-03 -6.6989621029423463e-02 0.0000000000000000e+00  -5.4507551296823745e-04 -6.9410381951909100e-02 0.0000000000000000e+00  5.1672302954182945e-04 -7.1517039052271580e-02 0.0000000000000000e+00  1.4497058426298521e-03 -7.3299889849972988e-02 0.0000000000000000e+00  2.2054396674420548e-03 -7.4743440497974808e-02 0.0000000000000000e+00  2.7674506465157392e-03 -7.5824898265206955e-02 0.0000000000000000e+00  3.1570047842588368e-03 -7.6520981113255004e-02 0.0000000000000000e+00  3.4166566109753303e-03 -7.6820281035952162e-02 0.0000000000000000e+00  3.6086485462094387e-03 -7.6739655804747717e-02 0.0000000000000000e+00  3.7878171858803946e-03 -7.6335749254088175e-02 0.0000000000000000e+00  3.9832247425995813e-03 -7.5699306678960701e-02 0.0000000000000000e+00  4.1854369742139515e-03 -7.4928697111742493e-02 0.0000000000000000e+00  4.3643154758447513e-03 -7.4105267861016455e-02 0.0000000000000000e+00  4.4857004688505890e-03 -7.3266933843290458e-02 0.0000000000000000e+00  6.5040142681402806e-03 -7.2431688770186201e-02 0.0000000000000000e+00  5.8468383616751092e-03 -7.2429908192536599e-02 0.0000000000000000e+00  5.1890305921844003e-03 -7.2428118943913850e-02 0.0000000000000000e+00  7.1980553862317524e-03 -7.3268443493400129e-02 0.0000000000000000e+00  7.3229044871040367e-03 -7.4089628367649332e-02 0.0000000000000000e+00  7.5518880305980038e-03 -7.4893354922681357e-02 0.0000000000000000e+00  7.9131027955228455e-03 -7.5704407027753967e-02 0.0000000000000000e+00  8.4337383838217189e-03 -7.6583070236640960e-02 0.0000000000000000e+00  9.1077191724130441e-03 -7.7614561787934536e-02 0.0000000000000000e+00  9.9077866923252475e-03 -7.8860889371477783e-02 0.0000000000000000e+00  1.0777883488472761e-02 -8.0358505408427539e-02 0.0000000000000000e+00  1.1671937812444981e-02 -8.2102691357562305e-02 0.0000000000000000e+00  1.2567070733227445e-02 -8.4069614207207599e-02 0.0000000000000000e+00  1.3475284839106056e-02 -8.6234389662536812e-02 0.0000000000000000e+00  1.4446521943306666e-02 -8.8583439542794601e-02 0.0000000000000000e+00  1.5550997879142117e-02 -9.1130343348851145e-02 0.0000000000000000e+00  1.6855924489162642e-02 -9.3885928642029576e-02 0.0000000000000000e+00  1.8382214868109006e-02 -9.6845922594550091e-02 0.0000000000000000e+00  2.1834577486292681e-02 -1.0302807492657888e-01 0.0000000000000000e+00  2.3535916993291963e-02 -1.0593923534602975e-01 0.0000000000000000e+00  2.5108069008369177e-02 -1.0856739347485317e-01 0.0000000000000000e+00  2.6502888351317568e-02 -1.1084149014689693e-01 0.0000000000000000e+00  2.7678087091419466e-02 -1.1274252502860765e-01 0.0000000000000000e+00  2.8610193546301951e-02 -1.1426598600624066e-01 0.0000000000000000e+00  2.9300572851276272e-02 -1.1538669442940472e-01 0.0000000000000000e+00  2.9782987289728731e-02 -1.1608276768808448e-01 0.0000000000000000e+00  3.0116505158852579e-02 -1.1634583197921260e-01 0.0000000000000000e+00  3.0368997609206878e-02 -1.1619843690345044e-01 0.0000000000000000e+00  3.0599528879638609e-02 -1.1570242656037941e-01 0.0000000000000000e+00  3.0842107506454164e-02 -1.1495915160237052e-01 0.0000000000000000e+00  3.1083413601948821e-02 -1.1407192101427195e-01 0.0000000000000000e+00  3.1292401656267066e-02 -1.1312596625670263e-01 0.0000000000000000e+00  3.1432930414949226e-02 -1.1216315856828286e-01 0.0000000000000000e+00  3.3753620890660148e-02 -1.1120445146665085e-01 0.0000000000000000e+00  3.2998034361035107e-02 -1.1120200096760675e-01 0.0000000000000000e+00  3.2241790966437263e-02 -1.1119953753319103e-01 0.0000000000000000e+00  3.4551293406624148e-02 -1.1216721553006717e-01 0.0000000000000000e+00  3.4693921332943939e-02 -1.1311239783138365e-01 0.0000000000000000e+00  3.4953697892649238e-02 -1.1403776880112193e-01 0.0000000000000000e+00  3.5359687157743395e-02 -1.1496841138899132e-01 0.0000000000000000e+00  3.5939880581503568e-02 -1.1596571312960444e-01 0.0000000000000000e+00  3.6687928770397185e-02 -1.1711677481605171e-01 0.0000000000000000e+00  3.7574373047478821e-02 -1.1848392218507058e-01 0.0000000000000000e+00  3.8543064632991307e-02 -1.2009909629303944e-01 0.0000000000000000e+00  3.9553420032512228e-02 -1.2195260349568091e-01 0.0000000000000000e+00  4.0590656167368955e-02 -1.2401737677892935e-01 0.0000000000000000e+00  4.1682582483974800e-02 -1.2626314783743928e-01 0.0000000000000000e+00  4.2899697147333424e-02 -1.2867717951888810e-01 0.0000000000000000e+00  4.4343495394246868e-02 -1.3126562374118347e-01 0.0000000000000000e+00  4.6112923300268956e-02 -1.3404456285693972e-01 0.0000000000000000e+00  4.8258354586289305e-02 -1.3700949073213170e-01 0.0000000000000000e+00  5.3391934913751625e-02 -1.4317007150675182e-01 0.0000000000000000e+00  5.6057570714650715e-02 -1.4604283730522394e-01 0.0000000000000000e+00  5.8595265126322814e-02 -1.4859208076022040e-01 0.0000000000000000e+00  6.0912379405044098e-02 -1.5072701069514810e-01 0.0000000000000000e+00  6.2940336854382661e-02 -1.5241210477787318e-01 0.0000000000000000e+00  6.4645628819136783e-02 -1.5363128185597894e-01 0.0000000000000000e+00  6.6030143206965708e-02 -1.5434941596722185e-01 0.0000000000000000e+00  6.7134922736315689e-02 -1.5454246880137071e-01 0.0000000000000000e+00  6.8027304957131676e-02 -1.5420728592584668e-01 0.0000000000000000e+00  6.8779923148325720e-02 -1.5337882643844744e-01 0.0000000000000000e+00  6.9451358411419348e-02 -1.5213550362239781e-01 0.0000000000000000e+00  7.0070129403866616e-02 -1.5059583822975361e-01 0.0000000000000000e+00  7.0614906098828437e-02 -1.4887704672800575e-01 0.0000000000000000e+00  7.1047633954702566e-02 -1.4707493561478702e-01 0.0000000000000000e+00  7.1327634896895822e-02 -1.4523940067564120e-01 0.0000000000000000e+00  7.5778263468528242e-02 -1.4342203877049445e-01 0.0000000000000000e+00  7.4330544041403560e-02 -1.4341188006997954e-01 0.0000000000000000e+00  7.2882010499843830e-02 -1.4340170146353798e-01 0.0000000000000000e+00  7.7301558153466968e-02 -1.4527475196634679e-01 0.0000000000000000e+00  7.7564011138487016e-02 -1.4709434947297914e-01 0.0000000000000000e+00  7.8029302696122960e-02 -1.4887725351225800e-01 0.0000000000000000e+00  7.8726098225551142e-02 -1.5064032917278544e-01 0.0000000000000000e+00  7.9681994486579977e-02 -1.5243828362564141e-01 0.0000000000000000e+00  8.0890305001677015e-02 -1.5435249461824591e-01 0.0000000000000000e+00  8.2322105806545531e-02 -1.5643914953887805e-01 0.0000000000000000e+00  8.3925168993081320e-02 -1.5872378798675679e-01 0.0000000000000000e+00  8.5668330535263695e-02 -1.6119204235148424e-01 0.0000000000000000e+00  8.7552134246982785e-02 -1.6381758989403111e-01 0.0000000000000000e+00  8.9622446581405779e-02 -1.6658092118533435e-01 0.0000000000000000e+00  9.1964045999442995e-02 -1.6949100376017501e-01 0.0000000000000000e+00  9.4672857198599497e-02 -1.7259339730550657e-01 0.0000000000000000e+00  9.7797041423386077e-02 -1.7596040414244968e-01 0.0000000000000000e+00  1.0127038542461503e-01 -1.7964228629736551e-01 0.0000000000000000e+00  1.0817663670396976e-01 -1.8772055286592951e-01 0.0000000000000000e+00  1.1098525646929944e-01 -1.9172038627470539e-01 0.0000000000000000e+00  1.1318838532924805e-01 -1.9544204906909796e-01 0.0000000000000000e+00  1.1485056032585439e-01 -1.9875479787610503e-01 0.0000000000000000e+00  1.1610066984424527e-01 -2.0164599379014805e-01 0.0000000000000000e+00  1.1705010122523712e-01 -2.0416762040722430e-01 0.0000000000000000e+00  1.1777647989908493e-01 -2.0637901460119101e-01 0.0000000000000000e+00  1.1832677715912314e-01 -2.0833994754960614e-01 0.0000000000000000e+00  1.1872610371910530e-01 -2.1009651328107645e-01 0.0000000000000000e+00  1.1899199965802340e-01 -2.1167675228224736e-01 0.0000000000000000e+00  1.1913547163990633e-01 -2.1309516276170845e-01 0.0000000000000000e+00  1.1916963207034974e-01 -2.1434883430579726e-01 0.0000000000000000e+00  1.1911805464700102e-01 -2.1542806146390900e-01 0.0000000000000000e+00  1.1900835887367683e-01 -2.1632049830418038e-01 0.0000000000000000e+00  1.1890113235299803e-01 -2.1703293926567008e-01 0.0000000000000000e+00  1.1453290138342248e-01 -2.2279937946460396e-01 0.0000000000000000e+00  1.1506949596149632e-01 -2.2204668949414108e-01 0.0000000000000000e+00  1.1553251616129409e-01 -2.2129757594021127e-01 0.0000000000000000e+00  1.1591336385047032e-01 -2.2057607870719817e-01 0.0000000000000000e+00  1.1621669761610175e-01 -2.1990443276795005e-01 0.0000000000000000e+00  1.1645564774390890e-01 -2.1929980338947289e-01 0.0000000000000000e+00  1.1664875459971612e-01 -2.1877604441819962e-01 0.0000000000000000e+00  1.1681854214299535e-01 -2.1834406976341358e-01 0.0000000000000000e+00  1.1699100790442175e-01 -2.1801170777232109e-01 0.0000000000000000e+00  1.1719486542215422e-01 -2.1778249825002072e-01 0.0000000000000000e+00  1.1746237532393367e-01 -2.1765473727481779e-01 0.0000000000000000e+00  1.1782487254477221e-01 -2.1761218276530866e-01 0.0000000000000000e+00  1.1830104482292614e-01 -2.1762435375387354e-01 0.0000000000000000e+00  2.1042860678834899e-01 -4.9312927192045281e-01 0.0000000000000000e+00  2.1020469068137909e-01 -4.8630477067546146e-01 0.0000000000000000e+00  2.0995648778277348e-01 -4.7945010921315856e-01 0.0000000000000000e+00  2.0966533156639816e-01 -4.7252023785504838e-01 0.0000000000000000e+00  2.0930714804050216e-01 -4.6549758778702388e-01 0.0000000000000000e+00  2.0886464945762770e-01 -4.5838302513979501e-01 0.0000000000000000e+00  2.0832687631360935e-01 -4.5118683397969589e-01 0.0000000000000000e+00  2.0768694198089538e-01 -4.4392621330638471e-01 0.0000000000000000e+00  2.0694519869635286e-01 -4.3662181541769141e-01 0.0000000000000000e+00  2.0610560224246524e-01 -4.2929532568408313e-01 0.0000000000000000e+00  2.0517553757945617e-01 -4.2196781585167764e-01 0.0000000000000000e+00  2.0416398197177604e-01 -4.1465982095027309e-01 0.0000000000000000e+00  2.0308094586558634e-01 -4.0739055382987061e-01 0.0000000000000000e+00  2.0193595196334527e-01 -4.0017791215047510e-01 0.0000000000000000e+00  2.0073703420121633e-01 -3.9303909632756973e-01 0.0000000000000000e+00  1.9949026340160370e-01 -3.8599171304238400e-01 0.0000000000000000e+00  1.9819962106850647e-01 -3.7905379767603514e-01 0.0000000000000000e+00  1.9686629540896791e-01 -3.7224693056220548e-01 0.0000000000000000e+00  1.9548946866778946e-01 -3.6559528703794636e-01 0.0000000000000000e+00  1.9406647676501323e-01 -3.5912859961593913e-01 0.0000000000000000e+00  1.9259336920123701e-01 -3.5288484936016773e-01 0.0000000000000000e+00  1.9106534756890392e-01 -3.4691604439608947e-01 0.0000000000000000e+00  1.8947757063027856e-01 -3.4131024601799875e-01 0.0000000000000000e+00  1.8786439162995131e-01 -3.3624058143705238e-01 0.0000000000000000e+00  1.8628394601221315e-01 -3.3160049498693994e-01 0.0000000000000000e+00  1.8473761589181084e-01 -3.2727178021940706e-01 0.0000000000000000e+00  1.8322149500125229e-01 -3.2320504868337713e-01 0.0000000000000000e+00  1.8173479910983223e-01 -3.1936513059978389e-01 0.0000000000000000e+00  1.8027688406765213e-01 -3.1572542799763831e-01 0.0000000000000000e+00  1.7884931686911604e-01 -3.1226433954108368e-01 0.0000000000000000e+00  1.7745424727063727e-01 -3.0896277227418067e-01 0.0000000000000000e+00  1.7609515035541337e-01 -3.0580329939645556e-01 0.0000000000000000e+00  1.7477614706310571e-01 -3.0276922314670862e-01 0.0000000000000000e+00  1.7350161531302721e-01 -2.9984474606190797e-01 0.0000000000000000e+00  1.7227625039941402e-01 -2.9701372726985542e-01 0.0000000000000000e+00  1.7110389053502670e-01 -2.9426049337992360e-01 0.0000000000000000e+00  1.6998794349552868e-01 -2.9156994764829719e-01 0.0000000000000000e+00  1.68929801827