<?xml version="1.0"?>
<VTKFile type="UnstructuredGrid"  version="0.1"  >
<UnstructuredGrid>
<Piece  NumberOfPoints="12853" NumberOfCells="23493">
<Points>
<DataArray  type="Float64"  NumberOfComponents="3"  format="ascii">-3.187178156719634e-14 1.7 0  0 0 0  1.3 3 0  -3.185690647650846e-14 4.300000000000001 0  -3.187178156719634e-14 4.699999999999999 0  1.3 6 0  -3.185690647650846e-14 7.300000000000001 0  -3.187178156719634e-14 7.699999999999999 0  1.3 9 0  -3.185690647650846e-14 10.3 0  -3.187178156719634e-14 10.7 0  1.3 12 0  -3.185690647650846e-14 13.3 0  -3.187178156719634e-14 13.7 0  1.3 15 0  -3.185690647650846e-14 16.3 0  0 18 0  18 18 0  17.99999999999997 16.3 0  17.99999999999997 13.7 0  17.99999999999997 13.3 0  17.99999999999997 10.7 0  17.99999999999997 10.3 0  17.99999999999997 7.7 0  17.99999999999997 7.3 0  17.99999999999997 4.7 0  17.99999999999997 4.3 0  17.99999999999997 1.7 0  18 0 0  4.3 3 0  7.3 3 0  10.3 3 0  4.3 6 0  7.3 6 0  10.3 6 0  13.3 3 0  16.3 3 0  13.3 6 0  16.3 6 0  4.3 9 0  4.3 12 0  7.3 9 0  10.3 9 0  7.3 12 0  10.3 12 0  4.3 15 0  7.3 15 0  10.3 15 0  13.3 9 0  13.3 12 0  16.3 9 0  16.3 12 0  13.3 15 0  16.3 15 0  0 1.578571428571429 0  0 1.457142857142856 0  0 1.335714285714285 0  0 1.214285714285712 0  0 1.092857142857142 0  0 0.9714285714285715 0  0 0.8499999999999979 0  0 0.7285714285714278 0  0 0.6071428571428577 0  0 0.485714285714284 0  0 0.3642857142857139 0  0 0.2428571428571438 0  0 0.1214285714285701 0  0.1274222824284281 1.706259855326144 0  0.2536174186209668 1.7249791354758 0  0.3773700804308007 1.755977563548128 0  0.497488462074617 1.798956607735327 0  0.6128157578737968 1.853502356347138 0  0.7222413029254824 1.919089504006691 0  0.8247112694127393 1.995086410628442 0  0.9192388155425116 2.080761184457488 0  1.004913589371558 2.17528873058726 0  1.080910495993309 2.277758697074517 0  1.146497643652861 2.387184242126203 0  1.201043392264673 2.502511537925383 0  1.244022436451871 2.622629919569199 0  1.275020864524199 2.746382581379033 0  1.293740144673856 2.872577717571571 0  1.293740144673856 3.127422282428428 0  1.2750208645242 3.253617418620966 0  1.244022436451872 3.3773700804308 0  1.201043392264673 3.497488462074616 0  1.146497643652862 3.612815757873796 0  1.08091049599331 3.722241302925481 0  1.00491358937156 3.824711269412738 0  0.9192388155425134 3.91923881554251 0  0.8247112694127412 4.004913589371556 0  0.7222413029254846 4.080910495993308 0  0.6128157578737984 4.146497643652861 0  0.4974884620746181 4.201043392264673 0  0.3773700804308024 4.244022436451871 0  0.2536174186209674 4.275020864524199 0  0.127422282428429 4.293740144673856 0  0 4.6 0  0 4.5 0  0 4.4 0  0.1274222824284281 4.706259855326143 0  0.2536174186209668 4.724979135475801 0  0.3773700804308007 4.755977563548129 0  0.497488462074617 4.798956607735327 0  0.6128157578737968 4.853502356347138 0  0.7222413029254824 4.919089504006691 0  0.8247112694127393 4.995086410628442 0  0.9192388155425116 5.080761184457488 0  1.004913589371558 5.17528873058726 0  1.080910495993309 5.277758697074518 0  1.146497643652861 5.387184242126203 0  1.201043392264673 5.502511537925383 0  1.244022436451871 5.622629919569198 0  1.275020864524199 5.746382581379033 0  1.293740144673856 5.872577717571572 0  1.293740144673856 6.127422282428428 0  1.2750208645242 6.253617418620967 0  1.244022436451872 6.377370080430801 0  1.201043392264673 6.497488462074616 0  1.146497643652862 6.612815757873795 0  1.08091049599331 6.722241302925481 0  1.00491358937156 6.824711269412737 0  0.9192388155425134 6.91923881554251 0  0.8247112694127412 7.004913589371556 0  0.7222413029254846 7.080910495993308 0  0.6128157578737984 7.146497643652861 0  0.4974884620746181 7.201043392264673 0  0.3773700804308024 7.244022436451871 0  0.2536174186209674 7.275020864524199 0  0.127422282428429 7.293740144673856 0  0 7.6 0  0 7.5 0  0 7.4 0  0.1274222824284281 7.706259855326143 0  0.2536174186209668 7.724979135475801 0  0.3773700804308007 7.755977563548129 0  0.497488462074617 7.798956607735327 0  0.6128157578737968 7.853502356347138 0  0.7222413029254824 7.919089504006691 0  0.8247112694127393 7.995086410628442 0  0.9192388155425116 8.080761184457488 0  1.004913589371558 8.17528873058726 0  1.080910495993309 8.277758697074518 0  1.146497643652861 8.387184242126203 0  1.201043392264673 8.502511537925383 0  1.244022436451871 8.622629919569199 0  1.275020864524199 8.746382581379033 0  1.293740144673856 8.872577717571572 0  1.293740144673856 9.127422282428428 0  1.2750208645242 9.253617418620966 0  1.244022436451872 9.377370080430801 0  1.201043392264673 9.497488462074616 0  1.146497643652862 9.612815757873795 0  1.08091049599331 9.722241302925481 0  1.00491358937156 9.824711269412738 0  0.9192388155425134 9.91923881554251 0  0.8247112694127412 10.00491358937156 0  0.7222413029254846 10.08091049599331 0  0.6128157578737984 10.14649764365286 0  0.4974884620746181 10.20104339226467 0  0.3773700804308024 10.24402243645187 0  0.2536174186209674 10.2750208645242 0  0.127422282428429 10.29374014467386 0  0 10.6 0  0 10.5 0  0 10.4 0  0.1274222824284281 10.70625985532614 0  0.2536174186209668 10.7249791354758 0  0.3773700804308007 10.75597756354813 0  0.497488462074617 10.79895660773533 0  0.6128157578737968 10.85350235634714 0  0.7222413029254824 10.91908950400669 0  0.8247112694127393 10.99508641062844 0  0.9192388155425116 11.08076118445749 0  1.004913589371558 11.17528873058726 0  1.080910495993309 11.27775869707452 0  1.146497643652861 11.3871842421262 0  1.201043392264673 11.50251153792538 0  1.244022436451871 11.6226299195692 0  1.275020864524199 11.74638258137903 0  1.293740144673856 11.87257771757157 0  1.293740144673856 12.12742228242843 0  1.2750208645242 12.25361741862097 0  1.244022436451872 12.3773700804308 0  1.201043392264673 12.49748846207462 0  1.146497643652862 12.6128157578738 0  1.08091049599331 12.72224130292548 0  1.00491358937156 12.82471126941274 0  0.9192388155425134 12.91923881554251 0  0.8247112694127412 13.00491358937156 0  0.7222413029254846 13.08091049599331 0  0.6128157578737984 13.14649764365286 0  0.4974884620746181 13.20104339226467 0  0.3773700804308024 13.24402243645187 0  0.2536174186209674 13.2750208645242 0  0.127422282428429 13.29374014467386 0  0 13.6 0  0 13.5 0  0 13.4 0  0.1274222824284281 13.70625985532614 0  0.2536174186209668 13.7249791354758 0  0.3773700804308007 13.75597756354813 0  0.497488462074617 13.79895660773533 0  0.6128157578737968 13.85350235634714 0  0.7222413029254824 13.91908950400669 0  0.8247112694127393 13.99508641062844 0  0.9192388155425116 14.08076118445749 0  1.004913589371558 14.17528873058726 0  1.080910495993309 14.27775869707452 0  1.146497643652861 14.3871842421262 0  1.201043392264673 14.50251153792538 0  1.244022436451871 14.6226299195692 0  1.275020864524199 14.74638258137903 0  1.293740144673856 14.87257771757157 0  1.293740144673856 15.12742228242843 0  1.2750208645242 15.25361741862097 0  1.244022436451872 15.3773700804308 0  1.201043392264673 15.49748846207462 0  1.146497643652862 15.6128157578738 0  1.08091049599331 15.72224130292548 0  1.00491358937156 15.82471126941274 0  0.9192388155425134 15.91923881554251 0  0.8247112694127412 16.00491358937156 0  0.7222413029254846 16.08091049599331 0  0.6128157578737984 16.14649764365286 0  0.4974884620746181 16.20104339226467 0  0.3773700804308024 16.24402243645187 0  0.2536174186209674 16.2750208645242 0  0.127422282428429 16.29374014467385 0  0 17.87857142857143 0  0 17.75714285714286 0  0 17.63571428571429 0  0 17.51428571428571 0  0 17.39285714285714 0  0 17.27142857142857 0  0 17.15 0  0 17.02857142857143 0  0 16.90714285714286 0  0 16.78571428571428 0  0 16.66428571428571 0  0 16.54285714285714 0  0 16.42142857142857 0  17.8705035971223 18 0  17.7410071942446 18 0  17.61151079136691 18 0  17.48201438848921 18 0  17.35251798561151 18 0  17.22302158273381 18 0  17.09352517985612 18 0  16.96402877697842 18 0  16.83453237410072 18 0  16.70503597122302 18 0  16.57553956834532 18 0  16.44604316546762 18 0  16.31654676258993 18 0  16.18705035971223 18 0  16.05755395683453 18 0  15.92805755395683 18 0  15.79856115107913 18 0  15.66906474820144 18 0  15.53956834532374 18 0  15.41007194244604 18 0  15.28057553956834 18 0  15.15107913669064 18 0  15.02158273381295 18 0  14.89208633093525 18 0  14.76258992805755 18 0  14.63309352517985 18 0  14.50359712230215 18 0  14.37410071942446 18 0  14.24460431654676 18 0  14.11510791366906 18 0  13.98561151079136 18 0  13.85611510791366 18 0  13.72661870503597 18 0  13.59712230215827 18 0  13.46762589928057 18 0  13.33812949640287 18 0  13.20863309352517 18 0  13.07913669064748 18 0  12.94964028776977 18 0  12.82014388489208 18 0  12.69064748201438 18 0  12.56115107913668 18 0  12.43165467625898 18 0  12.30215827338128 18 0  12.17266187050359 18 0  12.04316546762589 18 0  11.91366906474819 18 0  11.78417266187049 18 0  11.65467625899279 18 0  11.52517985611509 18 0  11.3956834532374 18 0  11.2661870503597 18 0  11.136690647482 18 0  11.0071942446043 18 0  10.8776978417266 18 0  10.7482014388489 18 0  10.6187050359712 18 0  10.48920863309351 18 0  10.35971223021581 18 0  10.23021582733811 18 0  10.10071942446041 18 0  9.971223021582714 18 0  9.841726618705016 18 0  9.712230215827317 18 0  9.582733812949618 18 0  9.453237410071921 18 0  9.323741007194224 18 0  9.194244604316525 18 0  9.064748201438828 18 0  8.935251798561131 18 0  8.805755395683434 18 0  8.676258992805735 18 0  8.546762589928038 18 0  8.417266187050341 18 0  8.287769784172642 18 0  8.158273381294947 18 0  8.028776978417248 18 0  7.899280575539549 18 0  7.769784172661854 18 0  7.640287769784155 18 0  7.510791366906458 18 0  7.381294964028761 18 0  7.251798561151062 18 0  7.122302158273365 18 0  6.992805755395668 18 0  6.86330935251797 18 0  6.733812949640273 18 0  6.604316546762576 18 0  6.474820143884878 18 0  6.34532374100718 18 0  6.215827338129483 18 0  6.086330935251786 18 0  5.956834532374087 18 0  5.827338129496392 18 0  5.697
[...]
<PointData  Vectors="f_21"> 
<DataArray  type="Float64"  Name="f_21"  NumberOfComponents="3" format="ascii">-4.1681740211799399e-03 -3.1066951751295784e-03 0.0000000000000000e+00  0.0000000000000000e+00 0.0000000000000000e+00 0.0000000000000000e+00  -6.9070189986654767e-03 -2.7297832813928502e-02 0.0000000000000000e+00  -9.0216665301570756e-03 -4.6971047535234123e-02 0.0000000000000000e+00  -8.7180470887662891e-03 -4.6970645414693972e-02 0.0000000000000000e+00  -3.2011506455874804e-03 -6.7951379989565366e-02 0.0000000000000000e+00  7.0156584903515026e-03 -7.9186461059742794e-02 0.0000000000000000e+00  1.0201457664104022e-02 -7.9198449018489728e-02 0.0000000000000000e+00  2.5628702655643310e-02 -1.1054238438844752e-01 0.0000000000000000e+00  3.9183805749044162e-02 -1.2256543710927766e-01 0.0000000000000000e+00  4.2730649191278565e-02 -1.2258040166498980e-01 0.0000000000000000e+00  6.1717273297314364e-02 -1.5519368420215138e-01 0.0000000000000000e+00  8.6316880464390705e-02 -1.5768260300039488e-01 0.0000000000000000e+00  9.3167002211649003e-02 -1.5774072947432419e-01 0.0000000000000000e+00  1.2544435771208190e-01 -2.0387970614693476e-01 0.0000000000000000e+00  1.4168422259880917e-01 -2.4188847031070881e-01 0.0000000000000000e+00  1.3650961623160596e-01 -2.4849139267541015e-01 0.0000000000000000e+00  2.4531368820855617e-01 -5.6481801462359482e-01 0.0000000000000000e+00  1.3832896218858251e-01 -5.5420976746312700e-01 0.0000000000000000e+00  1.1615797865175118e-01 -3.5361748449765817e-01 0.0000000000000000e+00  1.1699510653915861e-01 -3.5361693345518014e-01 0.0000000000000000e+00  9.1249111186529855e-02 -3.0751829221922072e-01 0.0000000000000000e+00  8.0767079151463098e-02 -3.0738267396600261e-01 0.0000000000000000e+00  5.3943354170636899e-02 -1.8667790948594878e-01 0.0000000000000000e+00  5.2490959133294463e-02 -1.8667650531790458e-01 0.0000000000000000e+00  3.4855005405013968e-02 -1.1404289081726043e-01 0.0000000000000000e+00  3.0104722950368319e-02 -1.1401603596264238e-01 0.0000000000000000e+00  7.3779850279275536e-03 -5.8191348686559815e-03 0.0000000000000000e+00  0.0000000000000000e+00 0.0000000000000000e+00 0.0000000000000000e+00  -3.8429611745436076e-03 -2.8221224514359992e-02 0.0000000000000000e+00  -8.1395156951315792e-04 -2.8477935276807021e-02 0.0000000000000000e+00  -9.2667972153347470e-04 -3.2019312485133997e-02 0.0000000000000000e+00  6.3883183802523639e-03 -7.1873100472183288e-02 0.0000000000000000e+00  9.4512892496394236e-03 -7.4506028001045957e-02 0.0000000000000000e+00  1.7775848048217587e-02 -8.4498224230688507e-02 0.0000000000000000e+00  3.1032987437916671e-03 -3.8765323322797203e-02 0.0000000000000000e+00  4.7495903963204952e-03 -5.1627542496902240e-02 0.0000000000000000e+00  1.7005497021976894e-02 -1.0614273656820225e-01 0.0000000000000000e+00  3.8157771653341693e-02 -1.3752335003821511e-01 0.0000000000000000e+00  2.9677852141933494e-02 -1.1677696170873381e-01 0.0000000000000000e+00  7.3130022332275030e-02 -1.6170657006311626e-01 0.0000000000000000e+00  3.8840305850784337e-02 -1.2024050193971365e-01 0.0000000000000000e+00  3.8410742819171485e-02 -1.3699216247403975e-01 0.0000000000000000e+00  7.2913162285040842e-02 -1.6527714381195499e-01 0.0000000000000000e+00  8.2540482247846422e-02 -1.8840609975482367e-01 0.0000000000000000e+00  1.2667985810220733e-01 -2.0688655649806442e-01 0.0000000000000000e+00  1.3271134815378230e-01 -2.0816005957398670e-01 0.0000000000000000e+00  1.2584717234288695e-01 -2.3661795626765264e-01 0.0000000000000000e+00  5.4534694383446713e-02 -1.7071639738084113e-01 0.0000000000000000e+00  7.1878122201801342e-02 -2.3589196663083678e-01 0.0000000000000000e+00  4.5294632080124915e-02 -2.2323917996450257e-01 0.0000000000000000e+00  1.0909199229526767e-01 -3.1131900875737678e-01 0.0000000000000000e+00  1.3213428254766080e-01 -2.9486072826141790e-01 0.0000000000000000e+00  8.7163978166158784e-02 -4.0545908412707471e-01 0.0000000000000000e+00  -4.2988752285274302e-03 -3.1138455019889435e-03 0.0000000000000000e+00  -4.3954184842322349e-03 -3.1406192112943022e-03 0.0000000000000000e+00  -4.4194654162970038e-03 -3.1629992092639778e-03 0.0000000000000000e+00  -4.3631867085612121e-03 -3.1614055474453481e-03 0.0000000000000000e+00  -4.2305583474499574e-03 -3.1223995001151256e-03 0.0000000000000000e+00  -4.0289839988300611e-03 -3.0399309501597501e-03 0.0000000000000000e+00  -3.7650272861685357e-03 -2.9119641194415833e-03 0.0000000000000000e+00  -3.4436405198319093e-03 -2.7370123722526593e-03 0.0000000000000000e+00  -3.0672462264138109e-03 -2.5133087690363104e-03 0.0000000000000000e+00  -2.6356354618578427e-03 -2.2367571926860284e-03 0.0000000000000000e+00  -2.1453739459185686e-03 -1.8990957516204193e-03 0.0000000000000000e+00  -1.5879727248043337e-03 -1.4823685036094497e-03 0.0000000000000000e+00  -9.2847377499216070e-04 -9.4383298914562719e-04 0.0000000000000000e+00  -4.1520525636756060e-03 -3.2391180742432934e-03 0.0000000000000000e+00  -4.0928609748313444e-03 -3.4201506773032316e-03 0.0000000000000000e+00  -4.0066974095933601e-03 -3.7206168823829852e-03 0.0000000000000000e+00  -3.9257676944282477e-03 -4.1829778656587635e-03 0.0000000000000000e+00  -3.8669250186522011e-03 -4.8274618098134350e-03 0.0000000000000000e+00  -3.8509153663644560e-03 -5.6685045084700850e-03 0.0000000000000000e+00  -3.8928631108105030e-03 -6.7136261311943222e-03 0.0000000000000000e+00  -4.0012741307323069e-03 -7.9712094918910764e-03 0.0000000000000000e+00  -4.1838122467081308e-03 -9.4509383565333088e-03 0.0000000000000000e+00  -4.4393226886585389e-03 -1.1168340903072048e-02 0.0000000000000000e+00  -4.7625707793366671e-03 -1.3146381156410548e-02 0.0000000000000000e+00  -5.1419303250428167e-03 -1.5410612712466513e-02 0.0000000000000000e+00  -5.5627624917705910e-03 -1.7988851223225140e-02 0.0000000000000000e+00  -6.0117518545899648e-03 -2.0879201828423535e-02 0.0000000000000000e+00  -6.4710445092575715e-03 -2.4016718212594285e-02 0.0000000000000000e+00  -7.2631503020345253e-03 -3.0534655468889078e-02 0.0000000000000000e+00  -7.5015094349519919e-03 -3.3581345712701299e-02 0.0000000000000000e+00  -7.6134146659548032e-03 -3.6355620983065107e-02 0.0000000000000000e+00  -7.6349029707480720e-03 -3.8825884880048005e-02 0.0000000000000000e+00  -7.6386504467209106e-03 -4.0998625738078019e-02 0.0000000000000000e+00  -7.6915927593331221e-03 -4.2876426907685908e-02 0.0000000000000000e+00  -7.8334301421924407e-03 -4.4442791333859574e-02 0.0000000000000000e+00  -8.0611311894531260e-03 -4.5672216946998030e-02 0.0000000000000000e+00  -8.3429850562080441e-03 -4.6547941828397235e-02 0.0000000000000000e+00  -8.6218777976064427e-03 -4.7080541625381861e-02 0.0000000000000000e+00  -8.8434568874376594e-03 -4.7321012278607681e-02 0.0000000000000000e+00  -8.9771822960948277e-03 -4.7356437035527298e-02 0.0000000000000000e+00  -9.0315362820949305e-03 -4.7282480163108417e-02 0.0000000000000000e+00  -9.0366823617863239e-03 -4.7176820452766020e-02 0.0000000000000000e+00  -9.0268951525833644e-03 -4.7071384158913369e-02 0.0000000000000000e+00  -8.7922827975894929e-03 -4.6970547755969018e-02 0.0000000000000000e+00  -8.8678037392767670e-03 -4.6970851570126294e-02 0.0000000000000000e+00  -8.9440840288923778e-03 -4.6971150190565858e-02 0.0000000000000000e+00  -8.7137518728775919e-03 -4.7063755960644056e-02 0.0000000000000000e+00  -8.6951376379877272e-03 -4.7149902654625167e-02 0.0000000000000000e+00  -8.6427886352659269e-03 -4.7231566453665073e-02 0.0000000000000000e+00  -8.5242713165294554e-03 -4.7341343411683307e-02 0.0000000000000000e+00  -8.3061711336215923e-03 -4.7549979619641074e-02 0.0000000000000000e+00  -7.9888545810501456e-03 -4.7956935060837515e-02 0.0000000000000000e+00  -7.5957419402125732e-03 -4.8639184667727257e-02 0.0000000000000000e+00  -7.1841052053344462e-03 -4.9647690237513663e-02 0.0000000000000000e+00  -6.8047258879190458e-03 -5.0986882369264658e-02 0.0000000000000000e+00  -6.4863900204878890e-03 -5.2635687666273023e-02 0.0000000000000000e+00  -6.2204347969462889e-03 -5.4565909787213270e-02 0.0000000000000000e+00  -5.9516665330733775e-03 -5.6753720284177432e-02 0.0000000000000000e+00  -5.5949605706765090e-03 -5.9203065114705633e-02 0.0000000000000000e+00  -5.0502734333471144e-03 -6.1909655046595236e-02 0.0000000000000000e+00  -4.2534970271794403e-03 -6.4855486698054271e-02 0.0000000000000000e+00  -1.9532608434585466e-03 -7.1055714306653098e-02 0.0000000000000000e+00  -6.0836994560983413e-04 -7.3996079559848688e-02 0.0000000000000000e+00  7.4149891618678393e-04 -7.6657537615125088e-02 0.0000000000000000e+00  2.0120326219560895e-03 -7.8967126823552780e-02 0.0000000000000000e+00  3.1319293498957568e-03 -8.0912358232297157e-02 0.0000000000000000e+00  4.0470860369864418e-03 -8.2474439462782864e-02 0.0000000000000000e+00  4.7397423902036167e-03 -8.3627160359775285e-02 0.0000000000000000e+00  5.2343216010117015e-03 -8.4344518695551540e-02 0.0000000000000000e+00  5.5785950733810473e-03 -8.4614320493310691e-02 0.0000000000000000e+00  5.8418612777673632e-03 -8.4456324145421480e-02 0.0000000000000000e+00  6.0846873165055189e-03 -8.3934635518089898e-02 0.0000000000000000e+00  6.3387140124790652e-03 -8.3151081857508469e-02 0.0000000000000000e+00  6.5928297328911355e-03 -8.2215680120586665e-02 0.0000000000000000e+00  6.8130831942274693e-03 -8.1219366166008805e-02 0.0000000000000000e+00  6.9613071581290879e-03 -8.0204870596045905e-02 0.0000000000000000e+00  9.4066925583683614e-03 -7.9195228835892195e-02 0.0000000000000000e+00  8.6105991610675552e-03 -7.9192475175642596e-02 0.0000000000000000e+00  7.8137989128539698e-03 -7.9189710863490068e-02 0.0000000000000000e+00  1.0246895763297461e-02 -8.0209749301315192e-02 0.0000000000000000e+00  1.0396965310505057e-02 -8.1205502387449904e-02 0.0000000000000000e+00  1.0670770071636330e-02 -8.2180333011058232e-02 0.0000000000000000e+00  1.1099238959007735e-02 -8.3160881205275455e-02 0.0000000000000000e+00  1.1712194454263946e-02 -8.4213141294578325e-02 0.0000000000000000e+00  1.2502573364085232e-02 -8.5430663371020885e-02 0.0000000000000000e+00  1.3439917603228180e-02 -8.6881208380938976e-02 0.0000000000000000e+00  1.4462172273176246e-02 -8.8604082109430785e-02 0.0000000000000000e+00  1.5518811727723573e-02 -9.0593015831772372e-02 0.0000000000000000e+00  1.6585553853229441e-02 -9.2820735921778544e-02 0.0000000000000000e+00  1.7677339847836541e-02 -9.5259120663604271e-02 0.0000000000000000e+00  1.8851538410699177e-02 -9.7893217277664354e-02 0.0000000000000000e+00  2.0188311549660526e-02 -1.0073845403397240e-01 0.0000000000000000e+00  2.1763418306464107e-02 -1.0380916728348412e-01 0.0000000000000000e+00  2.3598533775656429e-02 -1.0710294594586559e-01 0.0000000000000000e+00  2.7723262908083537e-02 -1.1398305336423974e-01 0.0000000000000000e+00  2.9741540850708698e-02 -1.1722377981982311e-01 0.0000000000000000e+00  3.1597303146202987e-02 -1.2014775960934705e-01 0.0000000000000000e+00  3.3237380791457757e-02 -1.2267309853025209e-01 0.0000000000000000e+00  3.4617440986751721e-02 -1.2477701962498448e-01 0.0000000000000000e+00  3.5714662990307545e-02 -1.2645377241980382e-01 0.0000000000000000e+00  3.6533540701506717e-02 -1.2767481445599171e-01 0.0000000000000000e+00  3.7114039947740624e-02 -1.2841599809084842e-01 0.0000000000000000e+00  3.7523593895627150e-02 -1.2866874793093658e-01 0.0000000000000000e+00  3.7838617475576743e-02 -1.2845934639329565e-01 0.0000000000000000e+00  3.8125028400137762e-02 -1.2785792988243644e-01 0.0000000000000000e+00  3.8420360770510864e-02 -1.2697841972588864e-01 0.0000000000000000e+00  3.8709315738617280e-02 -1.2593654987378253e-01 0.0000000000000000e+00  3.8956952618245208e-02 -1.2482771395036377e-01 0.0000000000000000e+00  3.9122826447773235e-02 -1.2369897742701803e-01 0.0000000000000000e+00  4.1845691857511295e-02 -1.2257642510741382e-01 0.0000000000000000e+00  4.0959348020621927e-02 -1.2257294462022951e-01 0.0000000000000000e+00  4.0072270577474207e-02 -1.2256944874488915e-01 0.0000000000000000e+00  4.2780763748125658e-02 -1.2370659755591625e-01 0.0000000000000000e+00  4.2947058888993916e-02 -1.2481599507703248e-01 0.0000000000000000e+00  4.3249312799610910e-02 -1.2590234324941815e-01 0.0000000000000000e+00  4.3719681413436517e-02 -1.2699301212798239e-01 0.0000000000000000e+00  4.4389005342971348e-02 -1.2815572834704633e-01 0.0000000000000000e+00  4.5249879154556978e-02 -1.2948662477756873e-01 0.0000000000000000e+00  4.6269313962113527e-02 -1.3105405705046508e-01 0.0000000000000000e+00  4.7385116836199122e-02 -1.3289230354274553e-01 0.0000000000000000e+00  4.8553059104106309e-02 -1.3498929980500751e-01 0.0000000000000000e+00  4.9758445525673829e-02 -1.3731371216461144e-01 0.0000000000000000e+00  5.1034946765166608e-02 -1.3983092882554995e-01 0.0000000000000000e+00  5.2464834920484135e-02 -1.4252601856898947e-01 0.0000000000000000e+00  5.4166263346480226e-02 -1.4540563911637766e-01 0.0000000000000000e+00  5.6254999989738631e-02 -1.4848944815632886e-01 0.0000000000000000e+00  5.8790721454778323e-02 -1.5177464354886785e-01 0.0000000000000000e+00  6.4864835516790245e-02 -1.5860363375494366e-01 0.0000000000000000e+00  6.8017116849465167e-02 -1.6178942685049108e-01 0.0000000000000000e+00  7.1014443429560314e-02 -1.6461254026083941e-01 0.0000000000000000e+00  7.3748754143907705e-02 -1.6696709013933878e-01 0.0000000000000000e+00  7.6143098209762949e-02 -1.6880999694345691e-01 0.0000000000000000e+00  7.8161885572808204e-02 -1.7012141414788298e-01 0.0000000000000000e+00  7.9809589491758010e-02 -1.7086087664074892e-01 0.0000000000000000e+00  8.1134239819446605e-02 -1.7100166030285668e-01 0.0000000000000000e+00  8.2212571919812683e-02 -1.7054127189957755e-01 0.0000000000000000e+00  8.3126314369508666e-02 -1.6952048488506002e-01 0.0000000000000000e+00  8.3940669978370297e-02 -1.6802881302343559e-01 0.0000000000000000e+00  8.4686674250219016e-02 -1.6620034691484215e-01 0.0000000000000000e+00  8.5339569675126195e-02 -1.6416726190241354e-01 0.0000000000000000e+00  8.5856105913844113e-02 -1.6203757206795402e-01 0.0000000000000000e+00  8.6190416128442277e-02 -1.5986796922445509e-01 0.0000000000000000e+00  9.1456410550501133e-02 -1.5772601535495614e-01 0.0000000000000000e+00  8.9744335325891461e-02 -1.5771171381177554e-01 0.0000000000000000e+00  8.8031347387255571e-02 -1.5769738756587121e-01 0.0000000000000000e+00  9.3255095793272860e-02 -1.5991964613309248e-01 0.0000000000000000e+00  9.3562321706540136e-02 -1.6207255715524152e-01 0.0000000000000000e+00  9.4107819462438388e-02 -1.6418256948988375e-01 0.0000000000000000e+00  9.4923228976258711e-02 -1.6626738920505937e-01 0.0000000000000000e+00  9.6038772566106212e-02 -1.6838692988093112e-01 0.0000000000000000e+00  9.7446317790066558e-02 -1.7063063507268722e-01 0.0000000000000000e+00  9.9113083424508849e-02 -1.7305964268112614e-01 0.0000000000000000e+00  1.0098086866975758e-01 -1.7570069596395294e-01 0.0000000000000000e+00  1.0301571371386316e-01 -1.7853623838295130e-01 0.0000000000000000e+00  1.0521982448978083e-01 -1.8153587181307260e-01 0.0000000000000000e+00  1.0764656990070179e-01 -1.8467774234679460e-01 0.0000000000000000e+00  1.1039294008087015e-01 -1.8797270531505636e-01 0.0000000000000000e+00  1.1356770660976284e-01 -1.9147401975505596e-01 0.0000000000000000e+00  1.1722345415208163e-01 -1.9526705998322733e-01 0.0000000000000000e+00  1.2127979552645504e-01 -1.9941223230581157e-01 0.0000000000000000e+00  1.2931586031758494e-01 -2.0851380148520446e-01 0.0000000000000000e+00  1.3256862981760154e-01 -2.1302000603506960e-01 0.0000000000000000e+00  1.3511161150836098e-01 -2.1720937279649183e-01 0.0000000000000000e+00  1.3702467535847471e-01 -2.2093237916846778e-01 0.0000000000000000e+00  1.3846082878822172e-01 -2.2417496908324394e-01 0.0000000000000000e+00  1.3955095544437690e-01 -2.2699674492720526e-01 0.0000000000000000e+00  1.4038578041025074e-01 -2.2946553740865985e-01 0.0000000000000000e+00  1.4101992889273710e-01 -2.3164951150033017e-01 0.0000000000000000e+00  1.4148251406573206e-01 -2.3360126997448605e-01 0.0000000000000000e+00  1.4179366670203758e-01 -2.3535293064154852e-01 0.0000000000000000e+00  1.4196583860386391e-01 -2.3692130935667030e-01 0.0000000000000000e+00  1.4201374005122988e-01 -2.3830362527095500e-01 0.0000000000000000e+00  1.4196370226475122e-01 -2.3948944159701252e-01 0.0000000000000000e+00  1.4184653357680330e-01 -2.4046532207349450e-01 0.0000000000000000e+00  1.4172998134510884e-01 -2.4123925508269767e-01 0.0000000000000000e+00  1.3713803491741919e-01 -2.4766700773944653e-01 0.0000000000000000e+00  1.3771606696525093e-01 -2.4682465606008486e-01 0.0000000000000000e+00  1.3821145780298516e-01 -2.4598634087725735e-01 0.0000000000000000e+00  1.3861472911011355e-01 -2.4517898040098624e-01 0.0000000000000000e+00  1.3893117658939219e-01 -2.4442746565412266e-01 0.0000000000000000e+00  1.3917555437768003e-01 -2.4375100413678857e-01 0.0000000000000000e+00  1.3936865890057692e-01 -2.4316509446738513e-01 0.0000000000000000e+00  1.3953573729824387e-01 -2.4268194203125301e-01 0.0000000000000000e+00  1.3970591908999266e-01 -2.4231029181591823e-01 0.0000000000000000e+00  1.3991136496183318e-01 -2.4205408640218717e-01 0.0000000000000000e+00  1.4018819466615995e-01 -2.4191138029645448e-01 0.0000000000000000e+00  1.4057146054853284e-01 -2.4186394539878972e-01 0.0000000000000000e+00  1.4108201190600350e-01 -2.4187762501424875e-01 0.0000000000000000e+00  2.4512894932620799e-01 -5.5681514204462879e-01 0.0000000000000000e+00  2.4490758798106535e-01 -5.4891819299610312e-01 0.0000000000000000e+00  2.4465842299703278e-01 -5.4099443576370643e-01 0.0000000000000000e+00  2.4436010410152961e-01 -5.3299007811420918e-01 0.0000000000000000e+00  2.4398488406939989e-01 -5.2488394181452391e-01 0.0000000000000000e+00  2.4351252994716321e-01 -5.1667645792897665e-01 0.0000000000000000e+00  2.4292996131747391e-01 -5.0837907535136651e-01 0.0000000000000000e+00  2.4222863121601879e-01 -5.0001136945950586e-01 0.0000000000000000e+00  2.4140825559455564e-01 -4.9159706789297464e-01 0.0000000000000000e+00  2.4047269195508789e-01 -4.8316126954398814e-01 0.0000000000000000e+00  2.3942980886811099e-01 -4.7472852187975190e-01 0.0000000000000000e+00  2.3828939999094825e-01 -4.6632291114182650e-01 0.0000000000000000e+00  2.3706261555090988e-01 -4.5796710213484532e-01 0.0000000000000000e+00  2.3576024868452913e-01 -4.4968229833218309e-01 0.0000000000000000e+00  2.3439158956686287e-01 -4.4148887950368904e-01 0.0000000000000000e+00  2.3296395828616412e-01 -4.3340762140267952e-01 0.0000000000000000e+00  2.3148234729278228e-01 -4.2545960732483690e-01 0.0000000000000000e+00  2.2994895683199407e-01 -4.1766977286729701e-01 0.0000000000000000e+00  2.2836365614503179e-01 -4.1006574672873669e-01 0.0000000000000000e+00  2.2672439545709325e-01 -4.0268113635379144e-01 0.0000000000000000e+00  2.2502770836467118e-01 -3.9555855281316710e-01 0.0000000000000000e+00  2.2326917563464785e-01 -3.8875605473753344e-01 0.0000000000000000e+00  2.2144430564993359e-01 -3.8237173294824739e-01 0.0000000000000000e+00  2.1959211408269055e-01 -3.7659855543210047e-01 0.0000000000000000e+00  2.1777801759299911e-01 -3.7131678476513919e-01 0.0000000000000000e+00  2.1600408847522892e-01 -3.6639353319246259e-01 0.0000000000000000e+00  2.1426641388353096e-01 -3.6177271070965883e-01 0.0000000000000000e+00  2.1256444370812569e-01 -3.5741403242358982e-01 0.0000000000000000e+00  2.1089762291617953e-01 -3.5328676409386800e-01 0.0000000000000000e+00  2.0926777761356827e-01 -3.4936579921044836e-01 0.0000000000000000e+00  2.0767725170153437e-01 -3.4562887291592648e-01 0.0000000000000000e+00  2.0612980522682217e-01 -3.4205567074115573e-01 0.0000000000000000e+00  2.0462982552463835e-01 -3.3862677823912973e-01 0.0000000000000000e+00  2.0318200576084916e-01 -3.3532392512450565e-01 0.0000000000000000e+00  2.0179132900841126e-01 -3.3212853786924251e-01 0.0000000000000000e+00  2.0046180555340673e-01 -3.2902267465498791e-01 0.0000000000000000e+00  1.9919704134623176e-01 -3.2598914124503248e-01 0.0000000000000000e+00  1.979983511131