<?xml version="1.0"?>
<VTKFile type="UnstructuredGrid"  version="0.1"  >
<UnstructuredGrid>
<Piece  NumberOfPoints="12853" NumberOfCells="23493">
<Points>
<DataArray  type="Float64"  NumberOfComponents="3"  format="ascii">-3.187178156719634e-14 1.7 0  0 0 0  1.3 3 0  -3.185690647650846e-14 4.300000000000001 0  -3.187178156719634e-14 4.699999999999999 0  1.3 6 0  -3.185690647650846e-14 7.300000000000001 0  -3.187178156719634e-14 7.699999999999999 0  1.3 9 0  -3.185690647650846e-14 10.3 0  -3.187178156719634e-14 10.7 0  1.3 12 0  -3.185690647650846e-14 13.3 0  -3.187178156719634e-14 13.7 0  1.3 15 0  -3.185690647650846e-14 16.3 0  0 18 0  18 18 0  17.99999999999997 16.3 0  17.99999999999997 13.7 0  17.99999999999997 13.3 0  17.99999999999997 10.7 0  17.99999999999997 10.3 0  17.99999999999997 7.7 0  17.99999999999997 7.3 0  17.99999999999997 4.7 0  17.99999999999997 4.3 0  17.99999999999997 1.7 0  18 0 0  4.3 3 0  7.3 3 0  10.3 3 0  4.3 6 0  7.3 6 0  10.3 6 0  13.3 3 0  16.3 3 0  13.3 6 0  16.3 6 0  4.3 9 0  4.3 12 0  7.3 9 0  10.3 9 0  7.3 12 0  10.3 12 0  4.3 15 0  7.3 15 0  10.3 15 0  13.3 9 0  13.3 12 0  16.3 9 0  16.3 12 0  13.3 15 0  16.3 15 0  0 1.578571428571429 0  0 1.457142857142856 0  0 1.335714285714285 0  0 1.214285714285712 0  0 1.092857142857142 0  0 0.9714285714285715 0  0 0.8499999999999979 0  0 0.7285714285714278 0  0 0.6071428571428577 0  0 0.485714285714284 0  0 0.3642857142857139 0  0 0.2428571428571438 0  0 0.1214285714285701 0  0.1274222824284281 1.706259855326144 0  0.2536174186209668 1.7249791354758 0  0.3773700804308007 1.755977563548128 0  0.497488462074617 1.798956607735327 0  0.6128157578737968 1.853502356347138 0  0.7222413029254824 1.919089504006691 0  0.8247112694127393 1.995086410628442 0  0.9192388155425116 2.080761184457488 0  1.004913589371558 2.17528873058726 0  1.080910495993309 2.277758697074517 0  1.146497643652861 2.387184242126203 0  1.201043392264673 2.502511537925383 0  1.244022436451871 2.622629919569199 0  1.275020864524199 2.746382581379033 0  1.293740144673856 2.872577717571571 0  1.293740144673856 3.127422282428428 0  1.2750208645242 3.253617418620966 0  1.244022436451872 3.3773700804308 0  1.201043392264673 3.497488462074616 0  1.146497643652862 3.612815757873796 0  1.08091049599331 3.722241302925481 0  1.00491358937156 3.824711269412738 0  0.9192388155425134 3.91923881554251 0  0.8247112694127412 4.004913589371556 0  0.7222413029254846 4.080910495993308 0  0.6128157578737984 4.146497643652861 0  0.4974884620746181 4.201043392264673 0  0.3773700804308024 4.244022436451871 0  0.2536174186209674 4.275020864524199 0  0.127422282428429 4.293740144673856 0  0 4.6 0  0 4.5 0  0 4.4 0  0.1274222824284281 4.706259855326143 0  0.2536174186209668 4.724979135475801 0  0.3773700804308007 4.755977563548129 0  0.497488462074617 4.798956607735327 0  0.6128157578737968 4.853502356347138 0  0.7222413029254824 4.919089504006691 0  0.8247112694127393 4.995086410628442 0  0.9192388155425116 5.080761184457488 0  1.004913589371558 5.17528873058726 0  1.080910495993309 5.277758697074518 0  1.146497643652861 5.387184242126203 0  1.201043392264673 5.502511537925383 0  1.244022436451871 5.622629919569198 0  1.275020864524199 5.746382581379033 0  1.293740144673856 5.872577717571572 0  1.293740144673856 6.127422282428428 0  1.2750208645242 6.253617418620967 0  1.244022436451872 6.377370080430801 0  1.201043392264673 6.497488462074616 0  1.146497643652862 6.612815757873795 0  1.08091049599331 6.722241302925481 0  1.00491358937156 6.824711269412737 0  0.9192388155425134 6.91923881554251 0  0.8247112694127412 7.004913589371556 0  0.7222413029254846 7.080910495993308 0  0.6128157578737984 7.146497643652861 0  0.4974884620746181 7.201043392264673 0  0.3773700804308024 7.244022436451871 0  0.2536174186209674 7.275020864524199 0  0.127422282428429 7.293740144673856 0  0 7.6 0  0 7.5 0  0 7.4 0  0.1274222824284281 7.706259855326143 0  0.2536174186209668 7.724979135475801 0  0.3773700804308007 7.755977563548129 0  0.497488462074617 7.798956607735327 0  0.6128157578737968 7.853502356347138 0  0.7222413029254824 7.919089504006691 0  0.8247112694127393 7.995086410628442 0  0.9192388155425116 8.080761184457488 0  1.004913589371558 8.17528873058726 0  1.080910495993309 8.277758697074518 0  1.146497643652861 8.387184242126203 0  1.201043392264673 8.502511537925383 0  1.244022436451871 8.622629919569199 0  1.275020864524199 8.746382581379033 0  1.293740144673856 8.872577717571572 0  1.293740144673856 9.127422282428428 0  1.2750208645242 9.253617418620966 0  1.244022436451872 9.377370080430801 0  1.201043392264673 9.497488462074616 0  1.146497643652862 9.612815757873795 0  1.08091049599331 9.722241302925481 0  1.00491358937156 9.824711269412738 0  0.9192388155425134 9.91923881554251 0  0.8247112694127412 10.00491358937156 0  0.7222413029254846 10.08091049599331 0  0.6128157578737984 10.14649764365286 0  0.4974884620746181 10.20104339226467 0  0.3773700804308024 10.24402243645187 0  0.2536174186209674 10.2750208645242 0  0.127422282428429 10.29374014467386 0  0 10.6 0  0 10.5 0  0 10.4 0  0.1274222824284281 10.70625985532614 0  0.2536174186209668 10.7249791354758 0  0.3773700804308007 10.75597756354813 0  0.497488462074617 10.79895660773533 0  0.6128157578737968 10.85350235634714 0  0.7222413029254824 10.91908950400669 0  0.8247112694127393 10.99508641062844 0  0.9192388155425116 11.08076118445749 0  1.004913589371558 11.17528873058726 0  1.080910495993309 11.27775869707452 0  1.146497643652861 11.3871842421262 0  1.201043392264673 11.50251153792538 0  1.244022436451871 11.6226299195692 0  1.275020864524199 11.74638258137903 0  1.293740144673856 11.87257771757157 0  1.293740144673856 12.12742228242843 0  1.2750208645242 12.25361741862097 0  1.244022436451872 12.3773700804308 0  1.201043392264673 12.49748846207462 0  1.146497643652862 12.6128157578738 0  1.08091049599331 12.72224130292548 0  1.00491358937156 12.82471126941274 0  0.9192388155425134 12.91923881554251 0  0.8247112694127412 13.00491358937156 0  0.7222413029254846 13.08091049599331 0  0.6128157578737984 13.14649764365286 0  0.4974884620746181 13.20104339226467 0  0.3773700804308024 13.24402243645187 0  0.2536174186209674 13.2750208645242 0  0.127422282428429 13.29374014467386 0  0 13.6 0  0 13.5 0  0 13.4 0  0.1274222824284281 13.70625985532614 0  0.2536174186209668 13.7249791354758 0  0.3773700804308007 13.75597756354813 0  0.497488462074617 13.79895660773533 0  0.6128157578737968 13.85350235634714 0  0.7222413029254824 13.91908950400669 0  0.8247112694127393 13.99508641062844 0  0.9192388155425116 14.08076118445749 0  1.004913589371558 14.17528873058726 0  1.080910495993309 14.27775869707452 0  1.146497643652861 14.3871842421262 0  1.201043392264673 14.50251153792538 0  1.244022436451871 14.6226299195692 0  1.275020864524199 14.74638258137903 0  1.293740144673856 14.87257771757157 0  1.293740144673856 15.12742228242843 0  1.2750208645242 15.25361741862097 0  1.244022436451872 15.3773700804308 0  1.201043392264673 15.49748846207462 0  1.146497643652862 15.6128157578738 0  1.08091049599331 15.72224130292548 0  1.00491358937156 15.82471126941274 0  0.9192388155425134 15.91923881554251 0  0.8247112694127412 16.00491358937156 0  0.7222413029254846 16.08091049599331 0  0.6128157578737984 16.14649764365286 0  0.4974884620746181 16.20104339226467 0  0.3773700804308024 16.24402243645187 0  0.2536174186209674 16.2750208645242 0  0.127422282428429 16.29374014467385 0  0 17.87857142857143 0  0 17.75714285714286 0  0 17.63571428571429 0  0 17.51428571428571 0  0 17.39285714285714 0  0 17.27142857142857 0  0 17.15 0  0 17.02857142857143 0  0 16.90714285714286 0  0 16.78571428571428 0  0 16.66428571428571 0  0 16.54285714285714 0  0 16.42142857142857 0  17.8705035971223 18 0  17.7410071942446 18 0  17.61151079136691 18 0  17.48201438848921 18 0  17.35251798561151 18 0  17.22302158273381 18 0  17.09352517985612 18 0  16.96402877697842 18 0  16.83453237410072 18 0  16.70503597122302 18 0  16.57553956834532 18 0  16.44604316546762 18 0  16.31654676258993 18 0  16.18705035971223 18 0  16.05755395683453 18 0  15.92805755395683 18 0  15.79856115107913 18 0  15.66906474820144 18 0  15.53956834532374 18 0  15.41007194244604 18 0  15.28057553956834 18 0  15.15107913669064 18 0  15.02158273381295 18 0  14.89208633093525 18 0  14.76258992805755 18 0  14.63309352517985 18 0  14.50359712230215 18 0  14.37410071942446 18 0  14.24460431654676 18 0  14.11510791366906 18 0  13.98561151079136 18 0  13.85611510791366 18 0  13.72661870503597 18 0  13.59712230215827 18 0  13.46762589928057 18 0  13.33812949640287 18 0  13.20863309352517 18 0  13.07913669064748 18 0  12.94964028776977 18 0  12.82014388489208 18 0  12.69064748201438 18 0  12.56115107913668 18 0  12.43165467625898 18 0  12.30215827338128 18 0  12.17266187050359 18 0  12.04316546762589 18 0  11.91366906474819 18 0  11.78417266187049 18 0  11.65467625899279 18 0  11.52517985611509 18 0  11.3956834532374 18 0  11.2661870503597 18 0  11.136690647482 18 0  11.0071942446043 18 0  10.8776978417266 18 0  10.7482014388489 18 0  10.6187050359712 18 0  10.48920863309351 18 0  10.35971223021581 18 0  10.23021582733811 18 0  10.10071942446041 18 0  9.971223021582714 18 0  9.841726618705016 18 0  9.712230215827317 18 0  9.582733812949618 18 0  9.453237410071921 18 0  9.323741007194224 18 0  9.194244604316525 18 0  9.064748201438828 18 0  8.935251798561131 18 0  8.805755395683434 18 0  8.676258992805735 18 0  8.546762589928038 18 0  8.417266187050341 18 0  8.287769784172642 18 0  8.158273381294947 18 0  8.028776978417248 18 0  7.899280575539549 18 0  7.769784172661854 18 0  7.640287769784155 18 0  7.510791366906458 18 0  7.381294964028761 18 0  7.251798561151062 18 0  7.122302158273365 18 0  6.992805755395668 18 0  6.86330935251797 18 0  6.733812949640273 18 0  6.604316546762576 18 0  6.474820143884878 18 0  6.34532374100718 18 0  6.215827338129483 18 0  6.086330935251786 18 0  5.956834532374087 18 0  5.827338129496392 18 0  5.697
[...]
<PointData  Vectors="f_21"> 
<DataArray  type="Float64"  Name="f_21"  NumberOfComponents="3" format="ascii">-1.6856432309881242e-03 -1.2605791851462871e-03 0.0000000000000000e+00  0.0000000000000000e+00 0.0000000000000000e+00 0.0000000000000000e+00  -3.0330692848268984e-03 -1.1083607964491886e-02 0.0000000000000000e+00  -4.4581728220800228e-03 -1.9476789270839481e-02 0.0000000000000000e+00  -4.4801103957878945e-03 -1.9476574958431348e-02 0.0000000000000000e+00  -3.0385132750493445e-03 -2.7584488254378446e-02 0.0000000000000000e+00  -5.4408955698028610e-04 -3.3527499884699809e-02 0.0000000000000000e+00  2.8322341563977399e-04 -3.3528056208329375e-02 0.0000000000000000e+00  4.6002019363906247e-03 -4.4671968624015103e-02 0.0000000000000000e+00  8.4123212118032507e-03 -5.0350146140070551e-02 0.0000000000000000e+00  9.4770617400651968e-03 -5.0351253201409187e-02 0.0000000000000000e+00  1.5295350151788796e-02 -6.2330825004364113e-02 0.0000000000000000e+00  2.2271393739011165e-02 -6.5386994067336529e-02 0.0000000000000000e+00  2.4262064293448300e-02 -6.5391719017253061e-02 0.0000000000000000e+00  3.4182112151681696e-02 -8.1093182896695704e-02 0.0000000000000000e+00  3.9374945933742536e-02 -9.5741053666384177e-02 0.0000000000000000e+00  3.6873279155174146e-02 -9.8269557603512830e-02 0.0000000000000000e+00  7.7372637986856202e-02 -2.0739601757327342e-01 0.0000000000000000e+00  4.1989547104049951e-02 -2.0441862866046565e-01 0.0000000000000000e+00  3.4491059766709131e-02 -1.3553818203761758e-01 0.0000000000000000e+00  3.4122383776248315e-02 -1.3553820125788391e-01 0.0000000000000000e+00  2.7577796887335665e-02 -1.0961137773159013e-01 0.0000000000000000e+00  2.5160230832249733e-02 -1.0960473856174707e-01 0.0000000000000000e+00  1.7899545910597010e-02 -7.1387152673513962e-02 0.0000000000000000e+00  1.6975715474229328e-02 -7.1386645883672328e-02 0.0000000000000000e+00  1.1619028236327919e-02 -4.0569292806587470e-02 0.0000000000000000e+00  1.0392174400078955e-02 -4.0567909921909812e-02 0.0000000000000000e+00  2.8314564223166183e-03 -2.2205441469637082e-03 0.0000000000000000e+00  0.0000000000000000e+00 0.0000000000000000e+00 0.0000000000000000e+00  -1.7621036792686154e-03 -1.1165639315764678e-02 0.0000000000000000e+00  -8.3685257335813247e-04 -1.1284388457619266e-02 0.0000000000000000e+00  -5.1181334710685776e-04 -1.2552523025572538e-02 0.0000000000000000e+00  1.6338366198900874e-04 -2.8510505144136510e-02 0.0000000000000000e+00  1.8865291328512110e-03 -2.9379068948688671e-02 0.0000000000000000e+00  4.1804367745495383e-03 -3.3178435176112721e-02 0.0000000000000000e+00  4.7959822272639215e-04 -1.5136300167751726e-02 0.0000000000000000e+00  2.2357398900296425e-03 -1.9368405356719454e-02 0.0000000000000000e+00  5.7261447908981602e-03 -4.0894827758282230e-02 0.0000000000000000e+00  1.0958172513549446e-02 -5.1661910574722074e-02 0.0000000000000000e+00  6.7651318587137179e-03 -4.6221203111694836e-02 0.0000000000000000e+00  1.8856793121804754e-02 -6.3839819862079109e-02 0.0000000000000000e+00  9.4967174660314686e-03 -4.7414616466673505e-02 0.0000000000000000e+00  1.0725393452653031e-02 -5.3738929922195304e-02 0.0000000000000000e+00  1.9658175654715341e-02 -6.5036490004951930e-02 0.0000000000000000e+00  2.2022725146454494e-02 -7.3766697064723316e-02 0.0000000000000000e+00  3.5387316626758737e-02 -8.1388587884249367e-02 0.0000000000000000e+00  3.7141151298534396e-02 -8.1585901273011338e-02 0.0000000000000000e+00  3.5332941234460687e-02 -9.2669021349753619e-02 0.0000000000000000e+00  1.4492377439562989e-02 -6.6078555039668946e-02 0.0000000000000000e+00  2.0956365847111542e-02 -9.1158124466171830e-02 0.0000000000000000e+00  1.5833647052575520e-02 -8.3965259600401354e-02 0.0000000000000000e+00  2.9512446898576690e-02 -1.1714464674651957e-01 0.0000000000000000e+00  3.6628267316634558e-02 -1.1380057308328347e-01 0.0000000000000000e+00  2.5702469357638577e-02 -1.5273453698740547e-01 0.0000000000000000e+00  -1.7373939966371539e-03 -1.2634961531189494e-03 0.0000000000000000e+00  -1.7751237132835136e-03 -1.2742034687775892e-03 0.0000000000000000e+00  -1.7834637595471920e-03 -1.2828564687882586e-03 0.0000000000000000e+00  -1.7594293348373673e-03 -1.2815509737964111e-03 0.0000000000000000e+00  -1.7047624024048430e-03 -1.2649200273378075e-03 0.0000000000000000e+00  -1.6225379580785150e-03 -1.2306102619931690e-03 0.0000000000000000e+00  -1.5154534850441033e-03 -1.1778693843884172e-03 0.0000000000000000e+00  -1.3855280446185697e-03 -1.1061741259363854e-03 0.0000000000000000e+00  -1.2337417955962362e-03 -1.0148779490175052e-03 0.0000000000000000e+00  -1.0599969866726317e-03 -9.0239385317288665e-04 0.0000000000000000e+00  -8.6287771936731405e-04 -7.6545712343909769e-04 0.0000000000000000e+00  -6.3890378910968419e-04 -5.9691039295442071e-04 0.0000000000000000e+00  -3.7391562540036474e-04 -3.7966779008564484e-04 0.0000000000000000e+00  -1.6791507180129355e-03 -1.3130940995174096e-03 0.0000000000000000e+00  -1.6555149503858426e-03 -1.3855687962766332e-03 0.0000000000000000e+00  -1.6214662326785284e-03 -1.5065850976045633e-03 0.0000000000000000e+00  -1.5901746573782976e-03 -1.6931440268172812e-03 0.0000000000000000e+00  -1.5685867530722099e-03 -1.9533034677712319e-03 0.0000000000000000e+00  -1.5652590512578231e-03 -2.2928331017249676e-03 0.0000000000000000e+00  -1.5865294315115517e-03 -2.7147888137277407e-03 0.0000000000000000e+00  -1.6361794504228381e-03 -3.2226902110372730e-03 0.0000000000000000e+00  -1.7177878105276818e-03 -3.8207101931873096e-03 0.0000000000000000e+00  -1.8316168609674281e-03 -4.5155289279028617e-03 0.0000000000000000e+00  -1.9766514373494399e-03 -5.3170038737237668e-03 0.0000000000000000e+00  -2.1497669543476504e-03 -6.2361125639793609e-03 0.0000000000000000e+00  -2.3470772350014388e-03 -7.2848017503610498e-03 0.0000000000000000e+00  -2.5653129714575192e-03 -8.4627112772080928e-03 0.0000000000000000e+00  -2.7986632403440050e-03 -9.7433082755942306e-03 0.0000000000000000e+00  -3.2426629370107540e-03 -1.2405843050244513e-02 0.0000000000000000e+00  -3.4074688487989711e-03 -1.3649868083316793e-02 0.0000000000000000e+00  -3.5193694084919556e-03 -1.4782134420379848e-02 0.0000000000000000e+00  -3.5894877101716720e-03 -1.5791019384415246e-02 0.0000000000000000e+00  -3.6453438365387073e-03 -1.6680777689787200e-02 0.0000000000000000e+00  -3.7135993767701573e-03 -1.7454176018898836e-02 0.0000000000000000e+00  -3.8109156755603774e-03 -1.8106113323020621e-02 0.0000000000000000e+00  -3.9372431461127018e-03 -1.8627191802820107e-02 0.0000000000000000e+00  -4.0808343999725050e-03 -1.9010832691948025e-02 0.0000000000000000e+00  -4.2194751110931680e-03 -1.9260759846950096e-02 0.0000000000000000e+00  -4.3315559378996320e-03 -1.9396590716248545e-02 0.0000000000000000e+00  -4.4046685875062525e-03 -1.9452439278920187e-02 0.0000000000000000e+00  -4.4419291038947650e-03 -1.9466065681164366e-02 0.0000000000000000e+00  -4.4551728406716107e-03 -1.9468194811799188e-02 0.0000000000000000e+00  -4.4580035139940672e-03 -1.9471251375420214e-02 0.0000000000000000e+00  -4.4739594485053956e-03 -1.9476547177333364e-02 0.0000000000000000e+00  -4.4683230420842161e-03 -1.9476683478329551e-02 0.0000000000000000e+00  -4.4629871388715270e-03 -1.9476817957956902e-02 0.0000000000000000e+00  -4.4806218107967723e-03 -1.9468139633299734e-02 0.0000000000000000e+00  -4.4798575489133421e-03 -1.9457353075353161e-02 0.0000000000000000e+00  -4.4699547951484999e-03 -1.9445667635175981e-02 0.0000000000000000e+00  -4.4377920775876614e-03 -1.9446629576308043e-02 0.0000000000000000e+00  -4.3698034349432579e-03 -1.9489106161936737e-02 0.0000000000000000e+00  -4.2659762475275578e-03 -1.9613559649700733e-02 0.0000000000000000e+00  -4.1355923008325277e-03 -1.9851513885269716e-02 0.0000000000000000e+00  -4.0017812169134762e-03 -2.0224267112407338e-02 0.0000000000000000e+00  -3.8854774438537259e-03 -2.0734627809881379e-02 0.0000000000000000e+00  -3.7993574950769839e-03 -2.1375376423945745e-02 0.0000000000000000e+00  -3.7418893562619149e-03 -2.2136646866829326e-02 0.0000000000000000e+00  -3.6940985952159124e-03 -2.3010323445496240e-02 0.0000000000000000e+00  -3.6265582607054188e-03 -2.3999558178552059e-02 0.0000000000000000e+00  -3.5052147417390170e-03 -2.5102508359760928e-02 0.0000000000000000e+00  -3.3095716870536061e-03 -2.6310901262564728e-02 0.0000000000000000e+00  -2.7084048871197221e-03 -2.8862356728726241e-02 0.0000000000000000e+00  -2.3459447834949733e-03 -3.0074180844106829e-02 0.0000000000000000e+00  -1.9766558010891047e-03 -3.1175667853966738e-02 0.0000000000000000e+00  -1.6272302379155613e-03 -3.2141573426412197e-02 0.0000000000000000e+00  -1.3234713740035051e-03 -3.2970064970546102e-02 0.0000000000000000e+00  -1.0866635461123594e-03 -3.3656685931252615e-02 0.0000000000000000e+00  -9.2512663980160034e-04 -3.4192816966902781e-02 0.0000000000000000e+00  -8.3087100837720773e-04 -3.4568568490720160e-02 0.0000000000000000e+00  -7.8604043589811296e-04 -3.4778409404643718e-02 0.0000000000000000e+00  -7.6362250574297803e-04 -3.4828435743748824e-02 0.0000000000000000e+00  -7.3913001980960562e-04 -3.4742009721109836e-02 0.0000000000000000e+00  -6.9898848508034362e-04 -3.4557702880451846e-02 0.0000000000000000e+00  -6.4654840511419072e-04 -3.4317828479115652e-02 0.0000000000000000e+00  -5.9446160998174471e-04 -3.4057461639621603e-02 0.0000000000000000e+00  -5.5747682323711303e-04 -3.3792527929587431e-02 0.0000000000000000e+00  7.7059016171636887e-05 -3.3527820451327933e-02 0.0000000000000000e+00  -1.2963204049255613e-04 -3.3527781235342384e-02 0.0000000000000000e+00  -3.3659400863926618e-04 -3.3527739479648232e-02 0.0000000000000000e+00  2.9574311029037813e-04 -3.3790121970564017e-02 0.0000000000000000e+00  3.3618965586577714e-04 -3.4047213796244549e-02 0.0000000000000000e+00  4.1240653721646335e-04 -3.4298564934204391e-02 0.0000000000000000e+00  5.3710965685445616e-04 -3.4556198424585030e-02 0.0000000000000000e+00  7.2274047459084539e-04 -3.4847859741039391e-02 0.0000000000000000e+00  9.6702215227532061e-04 -3.5212439744875965e-02 0.0000000000000000e+00  1.2581866695068613e-03 -3.5678629293572010e-02 0.0000000000000000e+00  1.5712894642427263e-03 -3.6263992981274813e-02 0.0000000000000000e+00  1.8852122713110540e-03 -3.6967837891785642e-02 0.0000000000000000e+00  2.1884166544273516e-03 -3.7780852215089873e-02 0.0000000000000000e+00  2.4840727931572512e-03 -3.8692942845836797e-02 0.0000000000000000e+00  2.7915670362077009e-03 -3.9698300439915492e-02 0.0000000000000000e+00  3.1387118147638859e-03 -4.0802828576348864e-02 0.0000000000000000e+00  3.5530781345090180e-03 -4.2008646145788940e-02 0.0000000000000000e+00  4.0451635097907218e-03 -4.3310898112843804e-02 0.0000000000000000e+00  5.1852633182125820e-03 -4.6030762687425904e-02 0.0000000000000000e+00  5.7626812798903439e-03 -4.7309996224468090e-02 0.0000000000000000e+00  6.3067396437168650e-03 -4.8466613063882405e-02 0.0000000000000000e+00  6.7966521644290435e-03 -4.9473336144621585e-02 0.0000000000000000e+00  7.2109444044337577e-03 -5.0324402315175557e-02 0.0000000000000000e+00  7.5353176389647818e-03 -5.1019206060076538e-02 0.0000000000000000e+00  7.7665698706918199e-03 -5.1547780700570624e-02 0.0000000000000000e+00  7.9163260381746557e-03 -5.1900504772199353e-02 0.0000000000000000e+00  8.0081751092825147e-03 -5.2072835517148190e-02 0.0000000000000000e+00  8.0706526439833590e-03 -5.2073059739946304e-02 0.0000000000000000e+00  8.1293855712965910e-03 -5.1926422846858035e-02 0.0000000000000000e+00  8.1997250421621520e-03 -5.1675682135608150e-02 0.0000000000000000e+00  8.2765337870467706e-03 -5.1364960862863122e-02 0.0000000000000000e+00  8.3468004631854029e-03 -5.1030792228155999e-02 0.0000000000000000e+00  8.3950368629656224e-03 -5.0690843946443027e-02 0.0000000000000000e+00  9.2115612779559552e-03 -5.0350877638644979e-02 0.0000000000000000e+00  8.9455180557792141e-03 -5.0350704381763790e-02 0.0000000000000000e+00  8.6791923631122803e-03 -5.0350526900600136e-02 0.0000000000000000e+00  9.4931153061220096e-03 -5.0688917494967296e-02 0.0000000000000000e+00  9.5445617743865740e-03 -5.1020832059471256e-02 0.0000000000000000e+00  9.6393388078288983e-03 -5.1345529127372100e-02 0.0000000000000000e+00  9.7904243823603073e-03 -5.1674760735968009e-02 0.0000000000000000e+00  1.0010491596095773e-02 -5.2036211702759322e-02 0.0000000000000000e+00  1.0297234423395094e-02 -5.2469075172288757e-02 0.0000000000000000e+00  1.0638070390688660e-02 -5.3001955577633285e-02 0.0000000000000000e+00  1.1008110867288300e-02 -5.3650523208263703e-02 0.0000000000000000e+00  1.1388446502278337e-02 -5.4412295375045876e-02 0.0000000000000000e+00  1.1770413218691560e-02 -5.5277172716057567e-02 0.0000000000000000e+00  1.2162720190746903e-02 -5.6233355832299395e-02 0.0000000000000000e+00  1.2591300563570716e-02 -5.7276531599826291e-02 0.0000000000000000e+00  1.3093790829362796e-02 -5.8409922690628051e-02 0.0000000000000000e+00  1.3706082838240952e-02 -5.9638478132075665e-02 0.0000000000000000e+00  1.4445544674444781e-02 -6.0957342802259444e-02 0.0000000000000000e+00  1.6208865902171677e-02 -6.3696865059613222e-02 0.0000000000000000e+00  1.7127403089816386e-02 -6.4973155031757601e-02 0.0000000000000000e+00  1.8006775020148674e-02 -6.6110801117045828e-02 0.0000000000000000e+00  1.8813067888707253e-02 -6.7076395813243497e-02 0.0000000000000000e+00  1.9517229521962744e-02 -6.7859283136659301e-02 0.0000000000000000e+00  2.0102367169642203e-02 -6.8455317425904064e-02 0.0000000000000000e+00  2.0566064980501845e-02 -6.8851266557605068e-02 0.0000000000000000e+00  2.0922995170822970e-02 -6.9036765587289467e-02 0.0000000000000000e+00  2.1200095086995243e-02 -6.9009100221891620e-02 0.0000000000000000e+00  2.1427916078762731e-02 -6.8780951025886924e-02 0.0000000000000000e+00  2.1632143550674901e-02 -6.8383448243877501e-02 0.0000000000000000e+00  2.1826335819923392e-02 -6.7865411026845568e-02 0.0000000000000000e+00  2.2002640676259923e-02 -6.7275813147363667e-02 0.0000000000000000e+00  2.2145682541911800e-02 -6.6654783395177733e-02 0.0000000000000000e+00  2.2238462894498143e-02 -6.6022663926593353e-02 0.0000000000000000e+00  2.3765140718022246e-02 -6.5390453849022728e-02 0.0000000000000000e+00  2.3267645056758896e-02 -6.5389363643854476e-02 0.0000000000000000e+00  2.2769806519780483e-02 -6.5388268218746909e-02 0.0000000000000000e+00  2.4291460578930512e-02 -6.6024331103111997e-02 0.0000000000000000e+00  2.4385046787433765e-02 -6.6648327145619066e-02 0.0000000000000000e+00  2.4550551645047353e-02 -6.7259163047988055e-02 0.0000000000000000e+00  2.4800884928026980e-02 -6.7865722402884451e-02 0.0000000000000000e+00  2.5148765632382820e-02 -6.8493338016737293e-02 0.0000000000000000e+00  2.5592109267016588e-02 -6.9179212776064966e-02 0.0000000000000000e+00  2.6118927908117994e-02 -6.9949847693485959e-02 0.0000000000000000e+00  2.6706271752733903e-02 -7.0818729497691760e-02 0.0000000000000000e+00  2.7339254511803364e-02 -7.1781770810055323e-02 0.0000000000000000e+00  2.8015564966016173e-02 -7.2829106139012376e-02 0.0000000000000000e+00  2.8751557178235958e-02 -7.3952593959526830e-02 0.0000000000000000e+00  2.9579932005517250e-02 -7.5155192695410739e-02 0.0000000000000000e+00  3.0538858511885043e-02 -7.6453417890986614e-02 0.0000000000000000e+00  3.1649794983184897e-02 -7.7871738413726993e-02 0.0000000000000000e+00  3.2892663637698286e-02 -7.9425229577020126e-02 0.0000000000000000e+00  3.5397736482449711e-02 -8.2815860640810049e-02 0.0000000000000000e+00  3.6436711382369334e-02 -8.4490529209639412e-02 0.0000000000000000e+00  3.7264171767352194e-02 -8.6051188663932202e-02 0.0000000000000000e+00  3.7897266365150624e-02 -8.7447334105875713e-02 0.0000000000000000e+00  3.8378335314694485e-02 -8.8674180411633927e-02 0.0000000000000000e+00  3.8745603725274413e-02 -8.9752366008064646e-02 0.0000000000000000e+00  3.9026296678491647e-02 -9.0705533169997923e-02 0.0000000000000000e+00  3.9237197309247900e-02 -9.1557573968545525e-02 0.0000000000000000e+00  3.9387345898742231e-02 -9.2326843350078860e-02 0.0000000000000000e+00  3.9483347516950436e-02 -9.3024342128997961e-02 0.0000000000000000e+00  3.9529605805851770e-02 -9.3655466551027813e-02 0.0000000000000000e+00  3.9531606312908703e-02 -9.4218320419251878e-02 0.0000000000000000e+00  3.9499469543439143e-02 -9.4708168314787983e-02 0.0000000000000000e+00  3.9445150909257251e-02 -9.5119210536543292e-02 0.0000000000000000e+00  3.9394651626446085e-02 -9.5453845597486486e-02 0.0000000000000000e+00  3.7148054016125358e-02 -9.7954169886391662e-02 0.0000000000000000e+00  3.7405683722108000e-02 -9.7632151593793404e-02 0.0000000000000000e+00  3.7632577773632624e-02 -9.7311578726962389e-02 0.0000000000000000e+00  3.7824703656705580e-02 -9.7002715182352692e-02 0.0000000000000000e+00  3.7983864700383868e-02 -9.6715070535415046e-02 0.0000000000000000e+00  3.8115550334742794e-02 -9.6456003835369883e-02 0.0000000000000000e+00  3.8227597572038897e-02 -9.6231462251266220e-02 0.0000000000000000e+00  3.8329567633374861e-02 -9.6046139740259245e-02 0.0000000000000000e+00  3.8432520914496074e-02 -9.5903421453475024e-02 0.0000000000000000e+00  3.8548697133475404e-02 -9.5804861691036150e-02 0.0000000000000000e+00  3.8691873074335470e-02 -9.5749803010809417e-02 0.0000000000000000e+00  3.8875484981690231e-02 -9.5731385163169300e-02 0.0000000000000000e+00  3.9107639478872698e-02 -9.5736638495782969e-02 0.0000000000000000e+00  7.7249008421296075e-02 -2.0482979214184027e-01 0.0000000000000000e+00  7.7116950310436555e-02 -2.0227018661967497e-01 0.0000000000000000e+00  7.6975059499254025e-02 -1.9968696252506385e-01 0.0000000000000000e+00  7.6816181692874894e-02 -1.9706580961528158e-01 0.0000000000000000e+00  7.6631232352057058e-02 -1.9440139550261984e-01 0.0000000000000000e+00  7.6414085492672965e-02 -1.9169483481688385e-01 0.0000000000000000e+00  7.6161175099195427e-02 -1.8895058396924977e-01 0.0000000000000000e+00  7.5870673898875071e-02 -1.8617551967206070e-01 0.0000000000000000e+00  7.5543594137020581e-02 -1.8337761237171807e-01 0.0000000000000000e+00  7.5182312343790442e-02 -1.8056500805407175e-01 0.0000000000000000e+00  7.4790436284009193e-02 -1.7774543602836981e-01 0.0000000000000000e+00  7.4372038169547641e-02 -1.7492623705806548e-01 0.0000000000000000e+00  7.3931373945431741e-02 -1.7211413555417512e-01 0.0000000000000000e+00  7.3472243542012358e-02 -1.6931530287258392e-01 0.0000000000000000e+00  7.2997605442284050e-02 -1.6653568753821413e-01 0.0000000000000000e+00  7.2509283169708769e-02 -1.6378150477868461e-01 0.0000000000000000e+00  7.2008221915111692e-02 -1.6105938355655816e-01 0.0000000000000000e+00  7.1493714192325905e-02 -1.5837764015064745e-01 0.0000000000000000e+00  7.0964341523138477e-02 -1.5574597331670659e-01 0.0000000000000000e+00  7.0417699996517591e-02 -1.5317679362462128e-01 0.0000000000000000e+00  6.9850815599088845e-02 -1.5068635026895691e-01 0.0000000000000000e+00  6.9260366569087212e-02 -1.4829724067216044e-01 0.0000000000000000e+00  6.8643053768462386e-02 -1.4604795288115030e-01 0.0000000000000000e+00  6.8012933984594806e-02 -1.4401388098787735e-01 0.0000000000000000e+00  6.7394563519481157e-02 -1.4215009272554485e-01 0.0000000000000000e+00  6.6787942655695307e-02 -1.4040678105115992e-01 0.0000000000000000e+00  6.6190873428565361e-02 -1.3876391761598253e-01 0.0000000000000000e+00  6.5602710284529658e-02 -1.3720768778736511e-01 0.0000000000000000e+00  6.5023096313174558e-02 -1.3572797781042500e-01 0.0000000000000000e+00  6.4452722919588687e-02 -1.3431673228555308e-01 0.0000000000000000e+00  6.3892722388059306e-02 -1.3296689013170079e-01 0.0000000000000000e+00  6.3344862372909524e-02 -1.3167195514091404e-01 0.0000000000000000e+00  6.2811299640736132e-02 -1.3042560163252900e-01 0.0000000000000000e+00  6.2294234125230941e-02 -1.2922168938260550e-01 0.0000000000000000e+00  6.1796076920157407e-02 -1.2805380482315948e-01 0.0000000000000000e+00  6.1318847830750471e-02 -1.2691558496232322e-01 0.0000000000000000e+00  6.0864253144042466e-02 -1.2580078864930769e-01 0.0000000000000000e+00